 Entering Gaussian System, Link 0=g09
 Initial command:
 /opt/local/share/g09/l1.exe "./Gau-5147.inp" -scrdir="./"
 Entering Link 1 = /opt/local/share/g09/l1.exe PID=      5148.
  
 Copyright (c) 1988,1990,1992,1993,1995,1998,2003,2009,2013,
            Gaussian, Inc.  All Rights Reserved.
  
 This is part of the Gaussian(R) 09 program.  It is based on
 the Gaussian(R) 03 system (copyright 2003, Gaussian, Inc.),
 the Gaussian(R) 98 system (copyright 1998, Gaussian, Inc.),
 the Gaussian(R) 94 system (copyright 1995, Gaussian, Inc.),
 the Gaussian 92(TM) system (copyright 1992, Gaussian, Inc.),
 the Gaussian 90(TM) system (copyright 1990, Gaussian, Inc.),
 the Gaussian 88(TM) system (copyright 1988, Gaussian, Inc.),
 the Gaussian 86(TM) system (copyright 1986, Carnegie Mellon
 University), and the Gaussian 82(TM) system (copyright 1983,
 Carnegie Mellon University). Gaussian is a federally registered
 trademark of Gaussian, Inc.
  
 This software contains proprietary and confidential information,
 including trade secrets, belonging to Gaussian, Inc.
  
 This software is provided under written license and may be
 used, copied, transmitted, or stored only in accord with that
 written license.
  
 The following legend is applicable only to US Government
 contracts under FAR:
  
                    RESTRICTED RIGHTS LEGEND
  
 Use, reproduction and disclosure by the US Government is
 subject to restrictions as set forth in subparagraphs (a)
 and (c) of the Commercial Computer Software - Restricted
 Rights clause in FAR 52.227-19.
  
 Gaussian, Inc.
 340 Quinnipiac St., Bldg. 40, Wallingford CT 06492
  
  
 ---------------------------------------------------------------
 Warning -- This program may not be used in any manner that
 competes with the business of Gaussian, Inc. or will provide
 assistance to any competitor of Gaussian, Inc.  The licensee
 of this program is prohibited from giving any competitor of
 Gaussian, Inc. access to this program.  By using this program,
 the user acknowledges that Gaussian, Inc. is engaged in the
 business of creating and licensing software in the field of
 computational chemistry and represents and warrants to the
 licensee that it is not a competitor of Gaussian, Inc. and that
 it will not use this program in any manner prohibited above.
 ---------------------------------------------------------------
  

 Cite this work as:
 Gaussian 09, Revision D.01,
 M. J. Frisch, G. W. Trucks, H. B. Schlegel, G. E. Scuseria, 
 M. A. Robb, J. R. Cheeseman, G. Scalmani, V. Barone, B. Mennucci, 
 G. A. Petersson, H. Nakatsuji, M. Caricato, X. Li, H. P. Hratchian, 
 A. F. Izmaylov, J. Bloino, G. Zheng, J. L. Sonnenberg, M. Hada, 
 M. Ehara, K. Toyota, R. Fukuda, J. Hasegawa, M. Ishida, T. Nakajima, 
 Y. Honda, O. Kitao, H. Nakai, T. Vreven, J. A. Montgomery, Jr., 
 J. E. Peralta, F. Ogliaro, M. Bearpark, J. J. Heyd, E. Brothers, 
 K. N. Kudin, V. N. Staroverov, T. Keith, R. Kobayashi, J. Normand, 
 K. Raghavachari, A. Rendell, J. C. Burant, S. S. Iyengar, J. Tomasi, 
 M. Cossi, N. Rega, J. M. Millam, M. Klene, J. E. Knox, J. B. Cross, 
 V. Bakken, C. Adamo, J. Jaramillo, R. Gomperts, R. E. Stratmann, 
 O. Yazyev, A. J. Austin, R. Cammi, C. Pomelli, J. W. Ochterski, 
 R. L. Martin, K. Morokuma, V. G. Zakrzewski, G. A. Voth, 
 P. Salvador, J. J. Dannenberg, S. Dapprich, A. D. Daniels, 
 O. Farkas, J. B. Foresman, J. V. Ortiz, J. Cioslowski, 
 and D. J. Fox, Gaussian, Inc., Wallingford CT, 2013.
 
 ******************************************
 Gaussian 09:  EM64M-G09RevD.01 24-Apr-2013
                29-Jan-2016 
 ******************************************
 %mem=8GB
 %nprocshared=4
 Will use up to    4 processors via shared memory.
 %chk=pescuh2o4.chk
 --------------------------------------------------------
 # opt=(modredundant,maxcycles=350) B3LYP/6-311G* scf=xqc
 --------------------------------------------------------
 1/6=350,14=-1,18=120,19=15,26=3,38=1/1,3;
 2/9=110,12=2,17=6,18=5,40=1/2;
 3/5=4,6=6,7=1,11=2,16=1,25=1,30=1,71=1,74=-5/1,2,3;
 4//1;
 5/5=2,8=3,13=1,38=5/2,8;
 6/7=2,8=2,9=2,10=2,28=1/1;
 7//1,2,3,16;
 1/6=350,14=-1,18=20,19=15,26=3/3(2);
 2/9=110/2;
 99//99;
 2/9=110/2;
 3/5=4,6=6,7=1,11=2,16=1,25=1,30=1,71=1,74=-5/1,2,3;
 4/5=5,16=3,69=1/1;
 5/5=2,8=3,13=1,38=5/2,8;
 7//1,2,3,16;
 1/6=350,14=-1,18=20,19=15,26=3/3(-5);
 2/9=110/2;
 6/7=2,8=2,9=2,10=2,19=2,28=1/1;
 99/9=1/99;
 ---------
 cu2(h20)1
 ---------
 Symbolic Z-matrix:
 Charge =  2 Multiplicity = 2
 29                    0.0109   -0.5074    0. 
 8                     0.0109    3.36191   0. 
 1                    -0.20156   3.90962   0.79568 
 1                    -0.20156   3.90962  -0.79568 
 
 Add virtual bond connecting atoms O2         and Cu1        Dist= 7.31D+00.
 The following ModRedundant input section has been read:
 B       1       2 S  25 -0.100                                                
 

 GradGradGradGradGradGradGradGradGradGradGradGradGradGradGradGradGradGrad
 Berny optimization.
 Initialization pass.
                           ----------------------------
                           !    Initial Parameters    !
                           ! (Angstroms and Degrees)  !
 --------------------------                            --------------------------
 ! Name  Definition              Value          Derivative Info.                !
 --------------------------------------------------------------------------------
 ! R1    R(1,2)                  3.8693         Scan                            !
 ! R2    R(2,3)                  0.9891         estimate D2E/DX2                !
 ! R3    R(2,4)                  0.9891         estimate D2E/DX2                !
 ! A1    A(1,2,3)              123.626          estimate D2E/DX2                !
 ! A2    A(1,2,4)              123.626          estimate D2E/DX2                !
 ! A3    A(3,2,4)              107.1214         estimate D2E/DX2                !
 ! D1    D(1,2,4,3)            154.2582         estimate D2E/DX2                !
 --------------------------------------------------------------------------------
 Trust Radius=3.00D-01 FncErr=1.00D-07 GrdErr=1.00D-06
 Number of optimizations in scan=  26
 Number of steps in this run=    100 maximum allowed number of steps=    100.
 GradGradGradGradGradGradGradGradGradGradGradGradGradGradGradGradGradGrad

                          Input orientation:                          
 ---------------------------------------------------------------------
 Center     Atomic      Atomic             Coordinates (Angstroms)
 Number     Number       Type             X           Y           Z
 ---------------------------------------------------------------------
      1         29           0        0.010895   -0.507397    0.000000
      2          8           0        0.010895    3.361909    0.000000
      3          1           0       -0.201558    3.909615    0.795679
      4          1           0       -0.201558    3.909615   -0.795679
 ---------------------------------------------------------------------
                    Distance matrix (angstroms):
                    1          2          3          4
     1  Cu   0.000000
     2  O    3.869306   0.000000
     3  H    4.493132   0.989052   0.000000
     4  H    4.493132   0.989052   1.591358   0.000000
 Stoichiometry    CuH2O(2+,2)
 Framework group  CS[SG(CuO),X(H2)]
 Deg. of freedom     4
 Full point group                 CS      NOp   2
 Largest Abelian subgroup         CS      NOp   2
 Largest concise Abelian subgroup CS      NOp   2
                         Standard orientation:                         
 ---------------------------------------------------------------------
 Center     Atomic      Atomic             Coordinates (Angstroms)
 Number     Number       Type             X           Y           Z
 ---------------------------------------------------------------------
      1         29           0        0.010895   -1.020217    0.000000
      2          8           0        0.010895    2.849089    0.000000
      3          1           0       -0.201558    3.396795    0.795679
      4          1           0       -0.201558    3.396795   -0.795679
 ---------------------------------------------------------------------
 Rotational constants (GHZ):    373.1890079      2.3293056      2.3165145
 Standard basis: 6-311G(d) (5D, 7F)
 There are    54 symmetry adapted cartesian basis functions of A'  symmetry.
 There are    23 symmetry adapted cartesian basis functions of A"  symmetry.
 There are    48 symmetry adapted basis functions of A'  symmetry.
 There are    22 symmetry adapted basis functions of A"  symmetry.
    70 basis functions,   123 primitive gaussians,    77 cartesian basis functions
    19 alpha electrons       18 beta electrons
       nuclear repulsion energy        47.4529973043 Hartrees.
 NAtoms=    4 NActive=    4 NUniq=    3 SFac= 1.78D+00 NAtFMM=   60 NAOKFM=F Big=F
 Integral buffers will be    131072 words long.
 Raffenetti 2 integral format.
 Two-electron integral symmetry is turned on.
 One-electron integrals computed using PRISM.
 NBasis=    70 RedAO= T EigKep=  1.33D-02  NBF=    48    22
 NBsUse=    70 1.00D-06 EigRej= -1.00D+00 NBFU=    48    22
 ExpMin= 4.08D-02 ExpMax= 3.37D+05 ExpMxC= 1.14D+04 IAcc=2 IRadAn=         4 AccDes= 0.00D+00
 Harris functional with IExCor=  402 and IRadAn=       4 diagonalized for initial guess.
 HarFok:  IExCor=  402 AccDes= 0.00D+00 IRadAn=         4 IDoV= 1 UseB2=F ITyADJ=14
 ICtDFT=  3500011 ScaDFX=  1.000000  1.000000  1.000000  1.000000
 FoFCou: FMM=F IPFlag=           0 FMFlag=      100000 FMFlg1=           0
         NFxFlg=           0 DoJE=T BraDBF=F KetDBF=T FulRan=T
         wScrn=  0.000000 ICntrl=     500 IOpCl=  0 I1Cent=   200000004 NGrid=           0
         NMat0=    1 NMatS0=      1 NMatT0=    0 NMatD0=    1 NMtDS0=    0 NMtDT0=    0
 Petite list used in FoFCou.
 Initial guess orbital symmetries:
 Alpha Orbitals:
       Occupied  (A') (A') (A') (A") (A') (A') (A') (A") (A') (A')
                 (A') (A") (A') (A') (A') (A") (A') (A") (A')
       Virtual   (A') (A') (A") (A') (A") (A') (A') (A') (A") (A')
                 (A') (A") (A') (A') (A") (A") (A') (A') (A") (A')
                 (A') (A") (A') (A') (A') (A") (A") (A') (A") (A')
                 (A') (A") (A') (A') (A') (A") (A') (A") (A") (A')
                 (A') (A') (A") (A') (A') (A') (A") (A') (A') (A')
                 (A')
 Beta  Orbitals:
       Occupied  (A') (A') (A') (A") (A') (A') (A') (A") (A') (A')
                 (A') (A") (A') (A') (A') (A") (A') (A")
       Virtual   (A') (A') (A') (A") (A') (A") (A') (A') (A') (A")
                 (A') (A') (A") (A') (A') (A") (A") (A') (A') (A")
                 (A') (A') (A") (A') (A') (A') (A") (A") (A') (A")
                 (A') (A') (A") (A') (A') (A') (A") (A') (A") (A")
                 (A') (A') (A') (A") (A') (A') (A') (A") (A') (A')
                 (A') (A')
 The electronic state of the initial guess is 2-A'.
 Initial guess <Sx>= 0.0000 <Sy>= 0.0000 <Sz>= 0.5000 <S**2>= 0.7500 S= 0.5000
 Keep R1 and R2 ints in memory in symmetry-blocked form, NReq=5155450.
 Requested convergence on RMS density matrix=1.00D-08 within  64 cycles.
 Requested convergence on MAX density matrix=1.00D-06.
 Requested convergence on             energy=1.00D-06.
 No special actions if energy rises.
 EnCoef did   100 forward-backward iterations
 EnCoef did   100 forward-backward iterations
 EnCoef did     7 forward-backward iterations
 EnCoef did     2 forward-backward iterations
 EnCoef did     7 forward-backward iterations
 EnCoef did     3 forward-backward iterations
 EnCoef did    26 forward-backward iterations
 EnCoef did    13 forward-backward iterations
 EnCoef did     3 forward-backward iterations
 >>>>>>>>>> Convergence criterion not met.
 SCF Done:  E(UB3LYP) =  -1715.99589881     A.U. after   65 cycles
            NFock= 64  Conv=0.60D-05     -V/T= 2.0005
 <Sx>= 0.0000 <Sy>= 0.0000 <Sz>= 0.5000 <S**2>= 0.7530 S= 0.5015
 <L.S>= 0.000000000000E+00
 Annihilation of the first spin contaminant:
 S**2 before annihilation     0.7530,   after     0.7500
 Keep R1 and R2 ints in memory in symmetry-blocked form, NReq=5185291.
 LinEq1:  Iter=  0 NonCon=     1 RMS=1.87D-06 Max=7.86D-05 NDo=     1
 AX will form     1 AO Fock derivatives at one time.
 LinEq1:  Iter=  1 NonCon=     1 RMS=8.15D-06 Max=3.39D-04 NDo=     1
 LinEq1:  Iter=  2 NonCon=     1 RMS=9.37D-07 Max=1.28D-05 NDo=     1
 LinEq1:  Iter=  3 NonCon=     1 RMS=3.96D-07 Max=1.31D-05 NDo=     1
 LinEq1:  Iter=  4 NonCon=     1 RMS=4.43D-08 Max=6.83D-07 NDo=     1
 LinEq1:  Iter=  5 NonCon=     1 RMS=1.74D-08 Max=3.56D-07 NDo=     1
 LinEq1:  Iter=  6 NonCon=     1 RMS=5.97D-09 Max=1.74D-07 NDo=     1
 LinEq1:  Iter=  7 NonCon=     1 RMS=2.84D-09 Max=5.88D-08 NDo=     1
 LinEq1:  Iter=  8 NonCon=     1 RMS=7.28D-10 Max=8.06D-09 NDo=     1
 LinEq1:  Iter=  9 NonCon=     1 RMS=1.67D-10 Max=2.75D-09 NDo=     1
 LinEq1:  Iter= 10 NonCon=     1 RMS=4.70D-11 Max=8.24D-10 NDo=     1
 LinEq1:  Iter= 11 NonCon=     0 RMS=1.37D-11 Max=1.60D-10 NDo=     1
 Linear equations converged to 5.816D-11 5.816D-10 after    11 iterations.
 LinEq1:  Iter=  0 NonCon=     1 RMS=3.23D-06 Max=1.41D-04 NDo=     1
 LinEq1:  Iter=  1 NonCon=     1 RMS=3.33D-07 Max=3.25D-06 NDo=     1
 LinEq1:  Iter=  2 NonCon=     1 RMS=1.17D-07 Max=3.04D-06 NDo=     1
 LinEq1:  Iter=  3 NonCon=     1 RMS=9.79D-08 Max=2.37D-06 NDo=     1
 LinEq1:  Iter=  4 NonCon=     1 RMS=8.16D-08 Max=1.41D-06 NDo=     1
 LinEq1:  Iter=  5 NonCon=     1 RMS=2.78D-08 Max=4.79D-07 NDo=     1
 LinEq1:  Iter=  6 NonCon=     1 RMS=8.44D-09 Max=1.45D-07 NDo=     1
 LinEq1:  Iter=  7 NonCon=     1 RMS=2.47D-09 Max=4.30D-08 NDo=     1
 LinEq1:  Iter=  8 NonCon=     1 RMS=8.03D-10 Max=1.39D-08 NDo=     1
 LinEq1:  Iter=  9 NonCon=     1 RMS=2.72D-10 Max=7.24D-09 NDo=     1
 LinEq1:  Iter= 10 NonCon=     1 RMS=1.41D-10 Max=3.00D-09 NDo=     1
 LinEq1:  Iter= 11 NonCon=     0 RMS=2.33D-11 Max=3.72D-10 NDo=     1
 Linear equations converged to 1.108D-10 1.108D-09 after    11 iterations.
 LinEq1:  Iter=  0 NonCon=     1 RMS=6.89D-09 Max=1.10D-07 NDo=     1
 LinEq1:  Iter=  1 NonCon=     1 RMS=2.21D-08 Max=9.60D-07 NDo=     1
 LinEq1:  Iter=  2 NonCon=     1 RMS=3.26D-08 Max=9.74D-07 NDo=     1
 LinEq1:  Iter=  3 NonCon=     1 RMS=2.59D-08 Max=5.10D-07 NDo=     1
 LinEq1:  Iter=  4 NonCon=     1 RMS=2.15D-08 Max=3.40D-07 NDo=     1
 LinEq1:  Iter=  5 NonCon=     1 RMS=7.91D-09 Max=1.22D-07 NDo=     1
 LinEq1:  Iter=  6 NonCon=     1 RMS=2.16D-09 Max=3.88D-08 NDo=     1
 LinEq1:  Iter=  7 NonCon=     1 RMS=6.31D-10 Max=9.64D-09 NDo=     1
 LinEq1:  Iter=  8 NonCon=     1 RMS=1.80D-10 Max=4.44D-09 NDo=     1
 LinEq1:  Iter=  9 NonCon=     1 RMS=7.56D-11 Max=1.80D-09 NDo=     1
 LinEq1:  Iter= 10 NonCon=     1 RMS=3.41D-11 Max=5.61D-10 NDo=     1
 LinEq1:  Iter= 11 NonCon=     0 RMS=1.00D-11 Max=1.26D-10 NDo=     1
 Linear equations converged to 1.339D-11 1.339D-10 after    11 iterations.
 SCF Done:  E(UB3LYP) =  -1715.99589882     a.u. after    4 cycles
            Convg  =    0.3555D-06                    37 Fock formations.
              S**2 =  0.7530                  -V/T =  2.0005
 <Sx>= 0.0000 <Sy>= 0.0000 <Sz>= 0.5000 <S**2>= 0.7530 S= 0.5015
 <L.S>= 0.000000000000E+00
 Annihilation of the first spin contaminant:
 S**2 before annihilation     0.7530,   after     0.7500

 **********************************************************************

            Population analysis using the SCF density.

 **********************************************************************

 Orbital symmetries:
 Alpha Orbitals:
       Occupied  (A') (A') (A') (A') (A") (A') (A') (A') (A') (A")
                 (A') (A") (A') (A') (A') (A') (A") (A") (A')
       Virtual   (A') (A') (A") (A') (A") (A') (A') (A') (A") (A')
                 (A') (A') (A") (A') (A') (A") (A") (A') (A") (A')
                 (A") (A') (A') (A') (A') (A") (A') (A') (A") (A")
                 (A') (A") (A') (A') (A') (A") (A') (A') (A") (A")
                 (A') (A') (A') (A") (A') (A') (A') (A") (A') (A')
                 (A')
 Beta  Orbitals:
       Occupied  (A') (A') (A') (A') (A") (A') (A') (A') (A') (A")
                 (A') (A") (A') (A') (A") (A") (A') (A')
       Virtual   (A') (A') (A') (A") (A') (A") (A') (A') (A') (A")
                 (A') (A') (A') (A") (A') (A") (A") (A') (A') (A")
                 (A') (A') (A") (A') (A') (A') (A") (A") (A') (A')
                 (A") (A') (A") (A') (A') (A') (A") (A') (A") (A")
                 (A') (A') (A') (A') (A") (A') (A') (A') (A") (A')
                 (A') (A')
 The electronic state is 2-A'.
 Alpha  occ. eigenvalues -- -323.45508 -39.24008 -34.47186 -34.45816 -34.45707
 Alpha  occ. eigenvalues --  -19.66339  -4.77993  -3.29626  -3.27028  -3.26822
 Alpha  occ. eigenvalues --   -1.51932  -1.01254  -0.87814  -0.85718  -0.78839
 Alpha  occ. eigenvalues --   -0.77083  -0.77001  -0.75931  -0.75926
 Alpha virt. eigenvalues --   -0.56163  -0.34695  -0.26393  -0.19543  -0.02510
 Alpha virt. eigenvalues --    0.00737   0.28001   0.32293   0.44675   0.69580
 Alpha virt. eigenvalues --    0.77839   0.79146   0.79250   0.95716   0.96552
 Alpha virt. eigenvalues --    0.96590   0.97238   0.97258   1.59356   1.62027
 Alpha virt. eigenvalues --    2.22940   2.25154   2.25856   2.60263   2.68710
 Alpha virt. eigenvalues --    2.92225   3.45660   3.46100   3.46170   3.47173
 Alpha virt. eigenvalues --    3.47181   3.47606   3.47607   4.18393   4.32256
 Alpha virt. eigenvalues --    4.44400   6.67350   6.68898   6.68976   6.69982
 Alpha virt. eigenvalues --    6.69987   8.75787   8.77960   8.78133  31.46491
 Alpha virt. eigenvalues --   42.23477  42.25411  42.25563  49.17328 183.53508
 Alpha virt. eigenvalues --  978.78511
  Beta  occ. eigenvalues -- -323.45508 -39.23166 -34.46026 -34.45344 -34.45291
  Beta  occ. eigenvalues --  -19.64505  -4.76247  -3.26424  -3.25767  -3.25713
  Beta  occ. eigenvalues --   -1.47260  -0.99890  -0.85840  -0.76436  -0.76327
  Beta  occ. eigenvalues --   -0.74928  -0.74923  -0.70333
  Beta virt. eigenvalues --   -0.67516  -0.55936  -0.34047  -0.25992  -0.19443
  Beta virt. eigenvalues --   -0.02495   0.01361   0.33260   0.33599   0.45577
  Beta virt. eigenvalues --    0.72072   0.79005   0.79650   0.79689   0.96820
  Beta virt. eigenvalues --    0.96869   0.97738   0.97758   0.98179   1.59193
  Beta virt. eigenvalues --    1.62488   2.27452   2.28974   2.31790   2.66005
  Beta virt. eigenvalues --    2.69658   2.93084   3.47302   3.47308   3.47568
  Beta virt. eigenvalues --    3.47620   3.47882   3.48287   3.48287   4.26527
  Beta virt. eigenvalues --    4.33847   4.46056   6.69431   6.69531   6.70794
  Beta virt. eigenvalues --    6.70799   6.70836   8.77730   8.78775   8.78858
  Beta virt. eigenvalues --   31.47619  42.24987  42.26047  42.26132  49.19181
  Beta virt. eigenvalues --  183.53931 978.78595
          Condensed to atoms (all electrons):
               1          2          3          4
     1  Cu  27.675121   0.002466  -0.000146  -0.000146
     2  O    0.002466   7.931762   0.233289   0.233289
     3  H   -0.000146   0.233289   0.242883  -0.015077
     4  H   -0.000146   0.233289  -0.015077   0.242883
          Atomic-Atomic Spin Densities.
               1          2          3          4
     1  Cu   0.325394  -0.000327   0.000007   0.000007
     2  O   -0.000327   0.732778  -0.008278  -0.008278
     3  H    0.000007  -0.008278  -0.013436   0.001220
     4  H    0.000007  -0.008278   0.001220  -0.013436
 Mulliken charges and spin densities:
               1          2
     1  Cu   1.322705   0.325080
     2  O   -0.400806   0.715894
     3  H    0.539050  -0.020487
     4  H    0.539050  -0.020487
 Sum of Mulliken charges =   2.00000   1.00000
 Mulliken charges and spin densities with hydrogens summed into heavy atoms:
               1          2
     1  Cu   1.322705   0.325080
     2  O    0.677295   0.674920
 Electronic spatial extent (au):  <R**2>=            416.3960
 Charge=              2.0000 electrons
 Dipole moment (field-independent basis, Debye):
    X=             -0.9233    Y=              5.5694    Z=              0.0000  Tot=              5.6454
 Quadrupole moment (field-independent basis, Debye-Ang):
   XX=            -13.0345   YY=             37.2153   ZZ=            -10.0188
   XY=             -3.3503   XZ=              0.0000   YZ=              0.0000
 Traceless Quadrupole moment (field-independent basis, Debye-Ang):
   XX=            -17.7552   YY=             32.4946   ZZ=            -14.7394
   XY=             -3.3503   XZ=              0.0000   YZ=              0.0000
 Octapole moment (field-independent basis, Debye-Ang**2):
  XXX=             -0.1130  YYY=            121.6704  ZZZ=              0.0000  XYY=            -10.7392
  XXY=             -8.0305  XXZ=              0.0000  XZZ=             -0.6855  YZZ=              2.2962
  YYZ=              0.0000  XYZ=              0.0000
 Hexadecapole moment (field-independent basis, Debye-Ang**3):
 XXXX=             -6.5269 YYYY=            210.7353 ZZZZ=             -6.0884 XXXY=              0.8666
 XXXZ=              0.0000 YYYX=            -35.4149 YYYZ=              0.0000 ZZZX=              0.0000
 ZZZY=              0.0000 XXYY=            -55.3983 XXZZ=             -2.3391 YYZZ=            -20.5788
 XXYZ=              0.0000 YYXZ=              0.0000 ZZXY=             -1.9480
 N-N= 4.745299730429D+01 E-N=-4.182947917203D+03  KE= 1.715058059381D+03
 Symmetry A'   KE= 1.490275395342D+03
 Symmetry A"   KE= 2.247826640386D+02
                          Isotropic Fermi Contact Couplings
        Atom                 a.u.       MegaHertz       Gauss      10(-4) cm-1
     1  Cu(63)            -0.07874     -93.39695     -33.32635     -31.15387
     2  O(17)              0.05508     -33.39110     -11.91477     -11.13807
     3  H(1)              -0.01101     -49.21809     -17.56224     -16.41739
     4  H(1)              -0.01101     -49.21809     -17.56224     -16.41739
 --------------------------------------------------------
       Center         ----  Spin Dipole Couplings  ----
                      3XX-RR        3YY-RR        3ZZ-RR
 --------------------------------------------------------
     1   Atom       -0.616012      1.453361     -0.837349
     2   Atom        2.324425     -0.928406     -1.396019
     3   Atom       -0.033092     -0.016715      0.049807
     4   Atom       -0.033092     -0.016715      0.049807
 --------------------------------------------------------
                        XY            XZ            YZ
 --------------------------------------------------------
     1   Atom       -0.317225      0.000000      0.000000
     2   Atom        1.370459      0.000000      0.000000
     3   Atom       -0.007836     -0.034514      0.090433
     4   Atom       -0.007836      0.034514     -0.090433
 --------------------------------------------------------


 ---------------------------------------------------------------------------------
              Anisotropic Spin Dipole Couplings in Principal Axis System
 ---------------------------------------------------------------------------------

       Atom             a.u.   MegaHertz   Gauss  10(-4) cm-1        Axes

              Baa    -0.8373  -118.553   -42.303   -39.545  0.0000  0.0000  1.0000
     1 Cu(63) Bbb    -0.6635   -93.946   -33.522   -31.337  0.9890  0.1482  0.0000
              Bcc     1.5009   212.500    75.825    70.882 -0.1482  0.9890  0.0000
 
              Baa    -1.4288   103.388    36.891    34.487 -0.3430  0.9393  0.0000
     2 O(17)  Bbb    -1.3960   101.015    36.045    33.695  0.0000  0.0000  1.0000
              Bcc     2.8248  -204.403   -72.936   -68.182  0.9393  0.3430  0.0000
 
              Baa    -0.0837   -44.679   -15.943   -14.903 -0.2825  0.7588 -0.5869
     3 H(1)   Bbb    -0.0362   -19.330    -6.897    -6.448  0.9359  0.3524  0.0051
              Bcc     0.1200    64.009    22.840    21.351 -0.2106  0.5478  0.8097
 
              Baa    -0.0837   -44.679   -15.943   -14.903 -0.2825  0.7588  0.5869
     4 H(1)   Bbb    -0.0362   -19.330    -6.897    -6.448  0.9359  0.3524 -0.0051
              Bcc     0.1200    64.009    22.840    21.351  0.2106 -0.5478  0.8097
 

 ---------------------------------------------------------------------------------

 Calling FoFJK, ICntrl=      2127 FMM=F ISym2X=1 I1Cent= 0 IOpClX= 1 NMat=1 NMatS=1 NMatT=0.
 ***** Axes restored to original set *****
 -------------------------------------------------------------------
 Center     Atomic                   Forces (Hartrees/Bohr)
 Number     Number              X              Y              Z
 -------------------------------------------------------------------
      1       29           0.000858872   -0.007352181    0.000000000
      2        8          -0.006289339    0.005871444    0.000000000
      3        1           0.002715234    0.000740369    0.000650065
      4        1           0.002715234    0.000740369   -0.000650065
 -------------------------------------------------------------------
 Cartesian Forces:  Max     0.007352181 RMS     0.003482197

 GradGradGradGradGradGradGradGradGradGradGradGradGradGradGradGradGradGrad
 Berny optimization.
 FormGI is forming the generalized inverse of G from B-inverse, IUseBI=4.
 Internal  Forces:  Max     0.007352448 RMS     0.003448261
 Search for a local minimum.
 Step number   1 out of a maximum of  100 on scan point     1 out of    26
 All quantities printed in internal units (Hartrees-Bohrs-Radians)
 Mixed Optimization -- RFO/linear search
 Second derivative matrix not updated -- first step.
 The second derivative matrix:
                          R1        R2        R3        A1        A2
           R1           0.00871
           R2           0.00000   0.49666
           R3           0.00000   0.00000   0.49666
           A1           0.00000   0.00000   0.00000   0.16000
           A2           0.00000   0.00000   0.00000   0.00000   0.16000
           A3           0.00000   0.00000   0.00000   0.00000   0.00000
           D1           0.00000   0.00000   0.00000   0.00000   0.00000
                          A3        D1
           A3           0.16000
           D1           0.00000   0.01173
 ITU=  0
     Eigenvalues ---    0.02107   0.16000   0.16000   0.49666   0.49666
     Eigenvalues --- 1000.000001000.00000
 RFO step:  Lambda=-1.23540832D-03 EMin= 2.10711120D-02
 Linear search not attempted -- first point.
 Iteration  1 RMS(Cart)=  0.05393208 RMS(Int)=  0.01229733
 Iteration  2 RMS(Cart)=  0.00718950 RMS(Int)=  0.00601306
 Iteration  3 RMS(Cart)=  0.00011186 RMS(Int)=  0.00601135
 Iteration  4 RMS(Cart)=  0.00000082 RMS(Int)=  0.00601135
 Iteration  1 RMS(Cart)=  0.00000000 RMS(Int)=  0.00000000
 ClnCor:  largest displacement from symmetrization is 7.77D-03 for atom     4.
 Variable       Old X    -DE/DX   Delta X   Delta X   Delta X     New X
                                 (Linear)    (Quad)   (Total)
    R1        7.31193   0.00735   0.00000   0.00000   0.00000   7.31193
    R2        1.86904   0.00035   0.00000   0.00070  -0.00123   1.86781
    R3        1.86904   0.00035   0.00000   0.00070  -0.00123   1.86781
    A1        2.15768  -0.00013   0.00000   0.03084   0.02282   2.18050
    A2        2.15768   0.00149   0.00000   0.03669   0.02282   2.18050
    A3        1.86962   0.00104   0.00000   0.03498   0.02941   1.89903
    D1        2.69231   0.00506   0.00000   0.22684   0.22853   2.92085
         Item               Value     Threshold  Converged?
 Maximum Force            0.005060     0.000450     NO 
 RMS     Force            0.002205     0.000300     NO 
 Maximum Displacement     0.129227     0.001800     NO 
 RMS     Displacement     0.059233     0.001200     NO 
 Predicted change in Energy=-7.575890D-04
 GradGradGradGradGradGradGradGradGradGradGradGradGradGradGradGradGradGrad

                          Input orientation:                          
 ---------------------------------------------------------------------
 Center     Atomic      Atomic             Coordinates (Angstroms)
 Number     Number       Type             X           Y           Z
 ---------------------------------------------------------------------
      1         29           0        0.020289   -0.515877    0.000000
      2          8           0       -0.057489    3.352646    0.000000
      3          1           0       -0.172119    3.916439    0.803703
      4          1           0       -0.172119    3.916439   -0.803703
 ---------------------------------------------------------------------
                    Distance matrix (angstroms):
                    1          2          3          4
     1  Cu   0.000000
     2  O    3.869305   0.000000
     3  H    4.508701   0.988403   0.000000
     4  H    4.508701   0.988403   1.607406   0.000000
 Stoichiometry    CuH2O(2+,2)
 Framework group  CS[SG(CuO),X(H2)]
 Deg. of freedom     4
 Full point group                 CS      NOp   2
 Largest Abelian subgroup         CS      NOp   2
 Largest concise Abelian subgroup CS      NOp   2
                         Standard orientation:                         
 ---------------------------------------------------------------------
 Center     Atomic      Atomic             Coordinates (Angstroms)
 Number     Number       Type             X           Y           Z
 ---------------------------------------------------------------------
      1         29           0        0.005296   -1.021154    0.000000
      2          8           0        0.005296    2.848151    0.000000
      3          1           0       -0.097978    3.414134    0.803703
      4          1           0       -0.097978    3.414134   -0.803703
 ---------------------------------------------------------------------
 Rotational constants (GHZ):    382.7415488      2.3272264      2.3135518
 Standard basis: 6-311G(d) (5D, 7F)
 There are    54 symmetry adapted cartesian basis functions of A'  symmetry.
 There are    23 symmetry adapted cartesian basis functions of A"  symmetry.
 There are    48 symmetry adapted basis functions of A'  symmetry.
 There are    22 symmetry adapted basis functions of A"  symmetry.
    70 basis functions,   123 primitive gaussians,    77 cartesian basis functions
    19 alpha electrons       18 beta electrons
       nuclear repulsion energy        47.4317119854 Hartrees.
 NAtoms=    4 NActive=    4 NUniq=    3 SFac= 1.78D+00 NAtFMM=   60 NAOKFM=F Big=F
 Integral buffers will be    131072 words long.
 Raffenetti 2 integral format.
 Two-electron integral symmetry is turned on.
 One-electron integrals computed using PRISM.
 NBasis=    70 RedAO= T EigKep=  1.33D-02  NBF=    48    22
 NBsUse=    70 1.00D-06 EigRej= -1.00D+00 NBFU=    48    22
 Initial guess from the checkpoint file:  "pescuh2o4.chk"
 B after Tr=     0.000000    0.000000    0.000000
         Rot=    0.999995    0.000000    0.000000    0.003164 Ang=   0.36 deg.
 Initial guess orbital symmetries:
 Alpha Orbitals:
       Occupied  (A') (A') (A') (A') (A") (A') (A') (A') (A') (A")
                 (A') (A") (A') (A') (A') (A') (A") (A") (A')
       Virtual   (A') (A') (A') (A') (A') (A') (A') (A') (A') (A')
                 (A') (A') (A') (A') (A') (A') (A') (A') (A') (A')
                 (A') (A') (A') (A') (A') (A') (A') (A') (A') (A')
                 (A') (A') (A') (A') (A") (A") (A") (A") (A") (A")
                 (A") (A") (A") (A") (A") (A") (A") (A") (A") (A")
                 (A")
 Beta  Orbitals:
       Occupied  (A') (A') (A') (A') (A") (A') (A') (A') (A') (A")
                 (A') (A") (A') (A') (A") (A") (A') (A')
       Virtual   (A') (A') (A') (A') (A') (A') (A') (A') (A') (A')
                 (A') (A') (A') (A') (A') (A') (A') (A') (A') (A')
                 (A') (A') (A') (A') (A') (A') (A') (A') (A') (A')
                 (A') (A') (A') (A') (A') (A") (A") (A") (A") (A")
                 (A") (A") (A") (A") (A") (A") (A") (A") (A") (A")
                 (A") (A")
 Initial guess <Sx>= 0.0000 <Sy>= 0.0000 <Sz>= 0.5000 <S**2>= 0.7530 S= 0.5015
 ExpMin= 4.08D-02 ExpMax= 3.37D+05 ExpMxC= 1.14D+04 IAcc=2 IRadAn=         4 AccDes= 0.00D+00
 Harris functional with IExCor=  402 and IRadAn=       4 diagonalized for initial guess.
 HarFok:  IExCor=  402 AccDes= 0.00D+00 IRadAn=         4 IDoV= 1 UseB2=F ITyADJ=14
 ICtDFT=  3500011 ScaDFX=  1.000000  1.000000  1.000000  1.000000
 FoFCou: FMM=F IPFlag=           0 FMFlag=      100000 FMFlg1=           0
         NFxFlg=           0 DoJE=T BraDBF=F KetDBF=T FulRan=T
         wScrn=  0.000000 ICntrl=     500 IOpCl=  0 I1Cent=   200000004 NGrid=           0
         NMat0=    1 NMatS0=      1 NMatT0=    0 NMatD0=    1 NMtDS0=    0 NMtDT0=    0
 Petite list used in FoFCou.
 Keep R1 and R2 ints in memory in symmetry-blocked form, NReq=5155450.
 Requested convergence on RMS density matrix=1.00D-08 within  64 cycles.
 Requested convergence on MAX density matrix=1.00D-06.
 Requested convergence on             energy=1.00D-06.
 No special actions if energy rises.
 >>>>>>>>>> Convergence criterion not met.
 SCF Done:  E(UB3LYP) =  -1715.99665248     A.U. after   65 cycles
            NFock= 64  Conv=0.67D-04     -V/T= 2.0006
 <Sx>= 0.0000 <Sy>= 0.0000 <Sz>= 0.5000 <S**2>= 0.7527 S= 0.5014
 <L.S>= 0.000000000000E+00
 Annihilation of the first spin contaminant:
 S**2 before annihilation     0.7527,   after     0.7500
 Keep R1 and R2 ints in memory in symmetry-blocked form, NReq=5185291.
 Gradient too large for Newton-Raphson -- use scaled steepest descent instead.
     Accept linear search using points  1 and  2.
 LinEq1:  Iter=  0 NonCon=     1 RMS=5.97D-04 Max=2.60D-02 NDo=     1
 AX will form     1 AO Fock derivatives at one time.
 LinEq1:  Iter=  1 NonCon=     1 RMS=4.60D-04 Max=5.77D-03 NDo=     1
 LinEq1:  Iter=  2 NonCon=     1 RMS=2.68D-04 Max=4.43D-03 NDo=     1
 LinEq1:  Iter=  3 NonCon=     1 RMS=2.55D-04 Max=8.18D-03 NDo=     1
 LinEq1:  Iter=  4 NonCon=     1 RMS=1.18D-04 Max=2.48D-03 NDo=     1
 LinEq1:  Iter=  5 NonCon=     1 RMS=1.98D-05 Max=2.84D-04 NDo=     1
 LinEq1:  Iter=  6 NonCon=     1 RMS=5.38D-06 Max=1.35D-04 NDo=     1
 LinEq1:  Iter=  7 NonCon=     1 RMS=1.43D-06 Max=2.43D-05 NDo=     1
 LinEq1:  Iter=  8 NonCon=     1 RMS=3.25D-07 Max=7.33D-06 NDo=     1
 LinEq1:  Iter=  9 NonCon=     1 RMS=1.54D-07 Max=4.50D-06 NDo=     1
 LinEq1:  Iter= 10 NonCon=     1 RMS=6.26D-08 Max=1.15D-06 NDo=     1
 LinEq1:  Iter= 11 NonCon=     1 RMS=1.67D-08 Max=2.43D-07 NDo=     1
 LinEq1:  Iter= 12 NonCon=     1 RMS=4.06D-09 Max=8.92D-08 NDo=     1
 LinEq1:  Iter= 13 NonCon=     0 RMS=9.26D-10 Max=2.19D-08 NDo=     1
 Linear equations converged to 4.365D-09 4.365D-08 after    13 iterations.
 LinEq1:  Iter=  0 NonCon=     1 RMS=1.15D-05 Max=4.56D-04 NDo=     1
 LinEq1:  Iter=  1 NonCon=     1 RMS=2.39D-05 Max=7.41D-04 NDo=     1
 LinEq1:  Iter=  2 NonCon=     1 RMS=5.72D-05 Max=1.32D-03 NDo=     1
 LinEq1:  Iter=  3 NonCon=     1 RMS=6.06D-05 Max=9.20D-04 NDo=     1
 LinEq1:  Iter=  4 NonCon=     1 RMS=1.59D-05 Max=2.17D-04 NDo=     1
 LinEq1:  Iter=  5 NonCon=     1 RMS=2.45D-06 Max=3.50D-05 NDo=     1
 LinEq1:  Iter=  6 NonCon=     1 RMS=7.29D-07 Max=1.68D-05 NDo=     1
 LinEq1:  Iter=  7 NonCon=     1 RMS=1.95D-07 Max=3.88D-06 NDo=     1
 LinEq1:  Iter=  8 NonCon=     1 RMS=7.86D-08 Max=2.69D-06 NDo=     1
 LinEq1:  Iter=  9 NonCon=     1 RMS=2.49D-08 Max=3.52D-07 NDo=     1
 LinEq1:  Iter= 10 NonCon=     1 RMS=5.74D-09 Max=8.07D-08 NDo=     1
 LinEq1:  Iter= 11 NonCon=     1 RMS=1.91D-09 Max=4.08D-08 NDo=     1
 LinEq1:  Iter= 12 NonCon=     0 RMS=3.86D-10 Max=5.67D-09 NDo=     1
 Linear equations converged to 3.693D-09 3.693D-08 after    12 iterations.
 LinEq1:  Iter=  0 NonCon=     1 RMS=9.23D-05 Max=4.02D-03 NDo=     1
 LinEq1:  Iter=  1 NonCon=     1 RMS=4.94D-05 Max=1.58D-03 NDo=     1
 LinEq1:  Iter=  2 NonCon=     1 RMS=3.53D-05 Max=9.01D-04 NDo=     1
 LinEq1:  Iter=  3 NonCon=     1 RMS=3.30D-05 Max=5.03D-04 NDo=     1
 LinEq1:  Iter=  4 NonCon=     1 RMS=8.88D-06 Max=1.24D-04 NDo=     1
 LinEq1:  Iter=  5 NonCon=     1 RMS=1.84D-06 Max=5.49D-05 NDo=     1
 LinEq1:  Iter=  6 NonCon=     1 RMS=5.45D-07 Max=1.29D-05 NDo=     1
 LinEq1:  Iter=  7 NonCon=     1 RMS=1.36D-07 Max=2.05D-06 NDo=     1
 LinEq1:  Iter=  8 NonCon=     1 RMS=3.91D-08 Max=1.41D-06 NDo=     1
 LinEq1:  Iter=  9 NonCon=     1 RMS=1.41D-08 Max=2.26D-07 NDo=     1
 LinEq1:  Iter= 10 NonCon=     1 RMS=3.45D-09 Max=5.14D-08 NDo=     1
 LinEq1:  Iter= 11 NonCon=     0 RMS=8.92D-10 Max=1.24D-08 NDo=     1
 Linear equations converged to 4.365D-09 4.365D-08 after    11 iterations.
 LinEq1:  Iter=  0 NonCon=     1 RMS=7.72D-05 Max=3.37D-03 NDo=     1
 LinEq1:  Iter=  1 NonCon=     1 RMS=1.47D-05 Max=3.60D-04 NDo=     1
 LinEq1:  Iter=  2 NonCon=     1 RMS=1.10D-05 Max=2.86D-04 NDo=     1
 LinEq1:  Iter=  3 NonCon=     1 RMS=1.19D-05 Max=2.51D-04 NDo=     1
 LinEq1:  Iter=  4 NonCon=     1 RMS=5.84D-06 Max=8.42D-05 NDo=     1
 LinEq1:  Iter=  5 NonCon=     1 RMS=1.55D-06 Max=2.61D-05 NDo=     1
 LinEq1:  Iter=  6 NonCon=     1 RMS=3.71D-07 Max=8.00D-06 NDo=     1
 LinEq1:  Iter=  7 NonCon=     1 RMS=1.15D-07 Max=2.14D-06 NDo=     1
 LinEq1:  Iter=  8 NonCon=     1 RMS=2.75D-08 Max=5.75D-07 NDo=     1
 LinEq1:  Iter=  9 NonCon=     1 RMS=7.22D-09 Max=1.46D-07 NDo=     1
 LinEq1:  Iter= 10 NonCon=     1 RMS=3.07D-09 Max=7.31D-08 NDo=     1
 LinEq1:  Iter= 11 NonCon=     1 RMS=1.02D-09 Max=2.44D-08 NDo=     1
 LinEq1:  Iter= 12 NonCon=     0 RMS=2.23D-10 Max=3.90D-09 NDo=     1
 Linear equations converged to 2.080D-09 2.080D-08 after    12 iterations.
 LinEq1:  Iter=  0 NonCon=     1 RMS=9.20D-06 Max=4.01D-04 NDo=     1
 LinEq1:  Iter=  1 NonCon=     1 RMS=3.10D-06 Max=6.39D-05 NDo=     1
 LinEq1:  Iter=  2 NonCon=     1 RMS=2.29D-06 Max=4.69D-05 NDo=     1
 LinEq1:  Iter=  3 NonCon=     1 RMS=2.61D-06 Max=5.41D-05 NDo=     1
 LinEq1:  Iter=  4 NonCon=     1 RMS=1.37D-06 Max=1.93D-05 NDo=     1
 LinEq1:  Iter=  5 NonCon=     1 RMS=4.77D-07 Max=8.29D-06 NDo=     1
 LinEq1:  Iter=  6 NonCon=     1 RMS=9.62D-08 Max=1.49D-06 NDo=     1
 LinEq1:  Iter=  7 NonCon=     1 RMS=2.24D-08 Max=2.91D-07 NDo=     1
 LinEq1:  Iter=  8 NonCon=     1 RMS=8.59D-09 Max=2.06D-07 NDo=     1
 LinEq1:  Iter=  9 NonCon=     1 RMS=2.85D-09 Max=7.09D-08 NDo=     1
 LinEq1:  Iter= 10 NonCon=     1 RMS=9.70D-10 Max=1.63D-08 NDo=     1
 LinEq1:  Iter= 11 NonCon=     1 RMS=3.12D-10 Max=8.69D-09 NDo=     1
 LinEq1:  Iter= 12 NonCon=     0 RMS=5.99D-11 Max=8.75D-10 NDo=     1
 Linear equations converged to 3.693D-10 3.693D-09 after    12 iterations.
 LinEq1:  Iter=  0 NonCon=     1 RMS=3.54D-07 Max=1.42D-05 NDo=     1
 LinEq1:  Iter=  1 NonCon=     1 RMS=2.01D-06 Max=3.44D-05 NDo=     1
 LinEq1:  Iter=  2 NonCon=     1 RMS=9.47D-07 Max=2.82D-05 NDo=     1
 LinEq1:  Iter=  3 NonCon=     1 RMS=5.56D-07 Max=7.68D-06 NDo=     1
 LinEq1:  Iter=  4 NonCon=     1 RMS=3.49D-07 Max=7.11D-06 NDo=     1
 LinEq1:  Iter=  5 NonCon=     1 RMS=1.59D-07 Max=5.11D-06 NDo=     1
 LinEq1:  Iter=  6 NonCon=     1 RMS=5.96D-08 Max=9.62D-07 NDo=     1
 LinEq1:  Iter=  7 NonCon=     1 RMS=1.38D-08 Max=1.64D-07 NDo=     1
 LinEq1:  Iter=  8 NonCon=     1 RMS=4.13D-09 Max=5.95D-08 NDo=     1
 LinEq1:  Iter=  9 NonCon=     1 RMS=1.10D-09 Max=1.44D-08 NDo=     1
 LinEq1:  Iter= 10 NonCon=     1 RMS=3.17D-10 Max=6.69D-09 NDo=     1
 LinEq1:  Iter= 11 NonCon=     1 RMS=1.32D-10 Max=3.74D-09 NDo=     1
 LinEq1:  Iter= 12 NonCon=     0 RMS=6.08D-11 Max=1.36D-09 NDo=     1
 Linear equations converged to 2.735D-10 2.735D-09 after    12 iterations.
 LinEq1:  Iter=  0 NonCon=     1 RMS=5.59D-09 Max=1.12D-07 NDo=     1
 LinEq1:  Iter=  1 NonCon=     1 RMS=1.00D-07 Max=3.94D-06 NDo=     1
 LinEq1:  Iter=  2 NonCon=     1 RMS=5.74D-08 Max=1.25D-06 NDo=     1
 LinEq1:  Iter=  3 NonCon=     1 RMS=6.40D-08 Max=1.43D-06 NDo=     1
 LinEq1:  Iter=  4 NonCon=     1 RMS=3.66D-08 Max=6.31D-07 NDo=     1
 LinEq1:  Iter=  5 NonCon=     1 RMS=1.32D-08 Max=1.98D-07 NDo=     1
 LinEq1:  Iter=  6 NonCon=     1 RMS=2.49D-09 Max=4.22D-08 NDo=     1
 LinEq1:  Iter=  7 NonCon=     1 RMS=6.38D-10 Max=1.12D-08 NDo=     1
 LinEq1:  Iter=  8 NonCon=     1 RMS=1.76D-10 Max=3.79D-09 NDo=     1
 LinEq1:  Iter=  9 NonCon=     1 RMS=7.04D-11 Max=2.38D-09 NDo=     1
 LinEq1:  Iter= 10 NonCon=     1 RMS=1.97D-11 Max=3.26D-10 NDo=     1
 LinEq1:  Iter= 11 NonCon=     1 RMS=7.11D-12 Max=1.99D-10 NDo=     1
 LinEq1:  Iter= 12 NonCon=     0 RMS=1.69D-12 Max=3.31D-11 NDo=     1
 Linear equations converged to 1.020D-11 1.020D-10 after    12 iterations.
 SCF Done:  E(UB3LYP) =  -1715.99669889     a.u. after    9 cycles
            Convg  =    0.3503D-06                   102 Fock formations.
              S**2 =  0.7527                  -V/T =  2.0005
 <Sx>= 0.0000 <Sy>= 0.0000 <Sz>= 0.5000 <S**2>= 0.7527 S= 0.5013
 <L.S>= 0.000000000000E+00
 Annihilation of the first spin contaminant:
 S**2 before annihilation     0.7527,   after     0.7500
 Calling FoFJK, ICntrl=      2127 FMM=F ISym2X=1 I1Cent= 0 IOpClX= 1 NMat=1 NMatS=1 NMatT=0.
 ***** Axes restored to original set *****
 -------------------------------------------------------------------
 Center     Atomic                   Forces (Hartrees/Bohr)
 Number     Number              X              Y              Z
 -------------------------------------------------------------------
      1       29           0.000530599   -0.007403430    0.000000000
      2        8          -0.002214941    0.003317666    0.000000000
      3        1           0.000842171    0.002042882   -0.000971183
      4        1           0.000842171    0.002042882    0.000971183
 -------------------------------------------------------------------
 Cartesian Forces:  Max     0.007403430 RMS     0.002624513

 GradGradGradGradGradGradGradGradGradGradGradGradGradGradGradGradGradGrad
 Berny optimization.
 Using GEDIIS/GDIIS optimizer.
 FormGI is forming the generalized inverse of G from B-inverse, IUseBI=4.
 Internal  Forces:  Max     0.007412821 RMS     0.003154400
 Search for a local minimum.
 Step number   2 out of a maximum of  100 on scan point     1 out of    26
 All quantities printed in internal units (Hartrees-Bohrs-Radians)
 Mixed Optimization -- RFO/linear search
 Update second derivatives using D2CorX and points    1    2
 DE= -8.00D-04 DEPred=-7.58D-04 R= 1.06D+00
 TightC=F SS=  1.41D+00  RLast= 2.33D-01 DXNew= 5.0454D-01 6.9802D-01
 Trust test= 1.06D+00 RLast= 2.33D-01 DXMaxT set to 5.05D-01
 The second derivative matrix:
                          R1        R2        R3        A1        A2
           R1           0.00871
           R2          -0.00001   0.49627
           R3          -0.00001  -0.00040   0.49627
           A1           0.00011   0.00229   0.00229   0.14817
           A2           0.00001   0.00241   0.00241  -0.01426   0.14552
           A3          -0.00028   0.00344   0.00344  -0.02531  -0.01928
           D1          -0.00024   0.00206   0.00206  -0.01644  -0.01116
                          A3        D1
           A3           0.15232
           D1           0.00062   0.01646
 ITU=  1  0
 Use linear search instead of GDIIS.
     Eigenvalues ---    0.01315   0.15998   0.17748   0.49590   0.49666
     Eigenvalues --- 1000.000001000.00000
 RFO step:  Lambda=-2.30404501D-04 EMin= 1.31499758D-02
 Quartic linear search produced a step of  0.76130.
 Iteration  1 RMS(Cart)=  0.05159272 RMS(Int)=  0.01181661
 Iteration  2 RMS(Cart)=  0.00523365 RMS(Int)=  0.00930789
 Iteration  3 RMS(Cart)=  0.00007113 RMS(Int)=  0.00930730
 Iteration  4 RMS(Cart)=  0.00000090 RMS(Int)=  0.00930730
 Iteration  1 RMS(Cart)=  0.00000065 RMS(Int)=  0.00000000
 ClnCor:  largest displacement from symmetrization is 5.59D-03 for atom     4.
 Variable       Old X    -DE/DX   Delta X   Delta X   Delta X     New X
                                 (Linear)    (Quad)   (Total)
    R1        7.31193   0.00741   0.00000   0.00000   0.00000   7.31193
    R2        1.86781   0.00028  -0.00093   0.00028   0.00078   1.86859
    R3        1.86781   0.00028  -0.00093   0.00028   0.00078   1.86859
    A1        2.18050   0.00132   0.01737   0.02020   0.02238   2.20288
    A2        2.18050   0.00162   0.01737   0.01569   0.02238   2.20288
    A3        1.89903  -0.00255   0.02239  -0.02721  -0.02162   1.87741
    D1        2.92085   0.00191   0.17398   0.04257   0.21670   3.13755
         Item               Value     Threshold  Converged?
 Maximum Force            0.002552     0.000450     NO 
 RMS     Force            0.001565     0.000300     NO 
 Maximum Displacement     0.119057     0.001800     NO 
 RMS     Displacement     0.055096     0.001200     NO 
 Predicted change in Energy=-1.620028D-04
 GradGradGradGradGradGradGradGradGradGradGradGradGradGradGradGradGradGrad

                          Input orientation:                          
 ---------------------------------------------------------------------
 Center     Atomic      Atomic             Coordinates (Angstroms)
 Number     Number       Type             X           Y           Z
 ---------------------------------------------------------------------
      1         29           0        0.028946   -0.523521    0.000000
      2          8           0       -0.120492    3.342898    0.000000
      3          1           0       -0.144958    3.926609    0.797769
      4          1           0       -0.144958    3.926609   -0.797769
 ---------------------------------------------------------------------
                    Distance matrix (angstroms):
                    1          2          3          4
     1  Cu   0.000000
     2  O    3.869306   0.000000
     3  H    4.524415   0.988814   0.000000
     4  H    4.524415   0.988814   1.595539   0.000000
 Stoichiometry    CuH2O(2+,2)
 Framework group  CS[SG(CuO),X(H2)]
 Deg. of freedom     4
 Full point group                 CS      NOp   2
 Largest Abelian subgroup         CS      NOp   2
 Largest concise Abelian subgroup CS      NOp   2
                         Standard orientation:                         
 ---------------------------------------------------------------------
 Center     Atomic      Atomic             Coordinates (Angstroms)
 Number     Number       Type             X           Y           Z
 ---------------------------------------------------------------------
      1         29           0        0.000098   -1.022090    0.000000
      2          8           0        0.000098    2.847216    0.000000
      3          1           0       -0.001807    3.431437    0.797769
      4          1           0       -0.001807    3.431437   -0.797769
 ---------------------------------------------------------------------
 Rotational constants (GHZ):    393.9536130      2.3246415      2.3110048
 Standard basis: 6-311G(d) (5D, 7F)
 There are    54 symmetry adapted cartesian basis functions of A'  symmetry.
 There are    23 symmetry adapted cartesian basis functions of A"  symmetry.
 There are    48 symmetry adapted basis functions of A'  symmetry.
 There are    22 symmetry adapted basis functions of A"  symmetry.
    70 basis functions,   123 primitive gaussians,    77 cartesian basis functions
    19 alpha electrons       18 beta electrons
       nuclear repulsion energy        47.4069536275 Hartrees.
 NAtoms=    4 NActive=    4 NUniq=    3 SFac= 1.78D+00 NAtFMM=   60 NAOKFM=F Big=F
 Integral buffers will be    131072 words long.
 Raffenetti 2 integral format.
 Two-electron integral symmetry is turned on.
 One-electron integrals computed using PRISM.
 NBasis=    70 RedAO= T EigKep=  1.33D-02  NBF=    48    22
 NBsUse=    70 1.00D-06 EigRej= -1.00D+00 NBFU=    48    22
 Initial guess from the checkpoint file:  "pescuh2o4.chk"
 B after Tr=     0.000000    0.000000    0.000000
         Rot=    0.999996    0.000000    0.000000    0.002934 Ang=   0.34 deg.
 Initial guess orbital symmetries:
 Alpha Orbitals:
       Occupied  (A') (A') (A') (A') (A") (A') (A') (A') (A') (A")
                 (A') (A") (A') (A') (A') (A') (A") (A") (A')
       Virtual   (A') (A') (A') (A') (A') (A') (A') (A') (A') (A')
                 (A') (A') (A') (A') (A') (A') (A') (A') (A') (A')
                 (A') (A') (A') (A') (A') (A') (A') (A') (A') (A')
                 (A') (A') (A') (A') (A") (A") (A") (A") (A") (A")
                 (A") (A") (A") (A") (A") (A") (A") (A") (A") (A")
                 (A")
 Beta  Orbitals:
       Occupied  (A') (A') (A') (A') (A") (A') (A') (A') (A') (A")
                 (A') (A") (A') (A') (A") (A") (A') (A')
       Virtual   (A') (A') (A') (A') (A') (A') (A') (A') (A') (A')
                 (A') (A') (A') (A') (A') (A') (A') (A') (A') (A')
                 (A') (A') (A') (A') (A') (A') (A') (A') (A') (A')
                 (A') (A') (A') (A') (A') (A") (A") (A") (A") (A")
                 (A") (A") (A") (A") (A") (A") (A") (A") (A") (A")
                 (A") (A")
 Initial guess <Sx>= 0.0000 <Sy>= 0.0000 <Sz>= 0.5000 <S**2>= 0.7527 S= 0.5013
 ExpMin= 4.08D-02 ExpMax= 3.37D+05 ExpMxC= 1.14D+04 IAcc=2 IRadAn=         4 AccDes= 0.00D+00
 Harris functional with IExCor=  402 and IRadAn=       4 diagonalized for initial guess.
 HarFok:  IExCor=  402 AccDes= 0.00D+00 IRadAn=         4 IDoV= 1 UseB2=F ITyADJ=14
 ICtDFT=  3500011 ScaDFX=  1.000000  1.000000  1.000000  1.000000
 FoFCou: FMM=F IPFlag=           0 FMFlag=      100000 FMFlg1=           0
         NFxFlg=           0 DoJE=T BraDBF=F KetDBF=T FulRan=T
         wScrn=  0.000000 ICntrl=     500 IOpCl=  0 I1Cent=   200000004 NGrid=           0
         NMat0=    1 NMatS0=      1 NMatT0=    0 NMatD0=    1 NMtDS0=    0 NMtDT0=    0
 Petite list used in FoFCou.
 Keep R1 and R2 ints in memory in symmetry-blocked form, NReq=5155450.
 Requested convergence on RMS density matrix=1.00D-08 within  64 cycles.
 Requested convergence on MAX density matrix=1.00D-06.
 Requested convergence on             energy=1.00D-06.
 No special actions if energy rises.
 >>>>>>>>>> Convergence criterion not met.
 SCF Done:  E(UB3LYP) =  -1715.99621072     A.U. after   65 cycles
            NFock= 64  Conv=0.16D-04     -V/T= 2.0007
 <Sx>= 0.0000 <Sy>= 0.0000 <Sz>= 0.5000 <S**2>= 0.7527 S= 0.5014
 <L.S>= 0.000000000000E+00
 Annihilation of the first spin contaminant:
 S**2 before annihilation     0.7527,   after     0.7500
 Keep R1 and R2 ints in memory in symmetry-blocked form, NReq=5185291.
 Gradient too large for Newton-Raphson -- use scaled steepest descent instead.
     Accept linear search using points  1 and  2.
 LinEq1:  Iter=  0 NonCon=     1 RMS=1.90D-03 Max=8.29D-02 NDo=     1
 AX will form     1 AO Fock derivatives at one time.
 LinEq1:  Iter=  1 NonCon=     1 RMS=1.64D-03 Max=2.05D-02 NDo=     1
 LinEq1:  Iter=  2 NonCon=     1 RMS=9.11D-04 Max=1.24D-02 NDo=     1
 LinEq1:  Iter=  3 NonCon=     1 RMS=7.47D-04 Max=2.25D-02 NDo=     1
 LinEq1:  Iter=  4 NonCon=     1 RMS=3.75D-04 Max=1.05D-02 NDo=     1
 LinEq1:  Iter=  5 NonCon=     1 RMS=6.81D-05 Max=1.04D-03 NDo=     1
 LinEq1:  Iter=  6 NonCon=     1 RMS=1.48D-05 Max=2.11D-04 NDo=     1
 LinEq1:  Iter=  7 NonCon=     1 RMS=3.71D-06 Max=6.16D-05 NDo=     1
 LinEq1:  Iter=  8 NonCon=     1 RMS=8.12D-07 Max=1.57D-05 NDo=     1
 LinEq1:  Iter=  9 NonCon=     1 RMS=2.13D-07 Max=3.52D-06 NDo=     1
 LinEq1:  Iter= 10 NonCon=     1 RMS=5.78D-08 Max=1.66D-06 NDo=     1
 LinEq1:  Iter= 11 NonCon=     1 RMS=2.56D-08 Max=6.99D-07 NDo=     1
 LinEq1:  Iter= 12 NonCon=     1 RMS=8.75D-09 Max=1.16D-07 NDo=     1
 LinEq1:  Iter= 13 NonCon=     0 RMS=1.69D-09 Max=3.96D-08 NDo=     1
 Linear equations converged to 4.365D-09 4.365D-08 after    13 iterations.
     Minimum is close to point  2 DX=  4.68D-02 DF= -8.37D-08 DXR=  4.47D-02 DFR=  2.00D-03 which will be used.
 LinEq1:  Iter=  0 NonCon=     1 RMS=9.09D-05 Max=3.93D-03 NDo=     1
 LinEq1:  Iter=  1 NonCon=     1 RMS=2.16D-04 Max=9.30D-03 NDo=     1
 LinEq1:  Iter=  2 NonCon=     1 RMS=1.86D-05 Max=2.30D-04 NDo=     1
 LinEq1:  Iter=  3 NonCon=     1 RMS=8.94D-06 Max=1.25D-04 NDo=     1
 LinEq1:  Iter=  4 NonCon=     1 RMS=5.86D-06 Max=8.60D-05 NDo=     1
 LinEq1:  Iter=  5 NonCon=     1 RMS=1.18D-06 Max=3.08D-05 NDo=     1
 LinEq1:  Iter=  6 NonCon=     1 RMS=2.86D-07 Max=5.19D-06 NDo=     1
 LinEq1:  Iter=  7 NonCon=     1 RMS=8.05D-08 Max=2.03D-06 NDo=     1
 LinEq1:  Iter=  8 NonCon=     1 RMS=3.48D-08 Max=1.07D-06 NDo=     1
 LinEq1:  Iter=  9 NonCon=     1 RMS=1.17D-08 Max=1.98D-07 NDo=     1
 LinEq1:  Iter= 10 NonCon=     1 RMS=2.74D-09 Max=3.57D-08 NDo=     1
 LinEq1:  Iter= 11 NonCon=     0 RMS=7.99D-10 Max=1.59D-08 NDo=     1
 Linear equations converged to 2.387D-09 2.387D-08 after    11 iterations.
 LinEq1:  Iter=  0 NonCon=     1 RMS=2.96D-04 Max=1.29D-02 NDo=     1
 LinEq1:  Iter=  1 NonCon=     1 RMS=2.03D-04 Max=8.75D-03 NDo=     1
 LinEq1:  Iter=  2 NonCon=     1 RMS=2.92D-05 Max=5.34D-04 NDo=     1
 LinEq1:  Iter=  3 NonCon=     1 RMS=1.86D-05 Max=3.10D-04 NDo=     1
 LinEq1:  Iter=  4 NonCon=     1 RMS=9.62D-06 Max=1.81D-04 NDo=     1
 LinEq1:  Iter=  5 NonCon=     1 RMS=1.74D-06 Max=3.33D-05 NDo=     1
 LinEq1:  Iter=  6 NonCon=     1 RMS=4.51D-07 Max=1.37D-05 NDo=     1
 LinEq1:  Iter=  7 NonCon=     1 RMS=1.25D-07 Max=2.92D-06 NDo=     1
 LinEq1:  Iter=  8 NonCon=     1 RMS=6.06D-08 Max=1.64D-06 NDo=     1
 LinEq1:  Iter=  9 NonCon=     1 RMS=2.14D-08 Max=3.98D-07 NDo=     1
 LinEq1:  Iter= 10 NonCon=     1 RMS=4.96D-09 Max=8.16D-08 NDo=     1
 LinEq1:  Iter= 11 NonCon=     0 RMS=1.17D-09 Max=1.42D-08 NDo=     1
 Linear equations converged to 4.365D-09 4.365D-08 after    11 iterations.
     Accept linear search using points  1 and  2.
 LinEq1:  Iter=  0 NonCon=     1 RMS=6.04D-04 Max=2.64D-02 NDo=     1
 LinEq1:  Iter=  1 NonCon=     1 RMS=1.79D-04 Max=7.55D-03 NDo=     1
 LinEq1:  Iter=  2 NonCon=     1 RMS=4.69D-05 Max=9.55D-04 NDo=     1
 LinEq1:  Iter=  3 NonCon=     1 RMS=3.63D-05 Max=6.40D-04 NDo=     1
 LinEq1:  Iter=  4 NonCon=     1 RMS=1.58D-05 Max=3.08D-04 NDo=     1
 LinEq1:  Iter=  5 NonCon=     1 RMS=2.81D-06 Max=5.50D-05 NDo=     1
 LinEq1:  Iter=  6 NonCon=     1 RMS=6.95D-07 Max=1.67D-05 NDo=     1
 LinEq1:  Iter=  7 NonCon=     1 RMS=1.85D-07 Max=2.63D-06 NDo=     1
 LinEq1:  Iter=  8 NonCon=     1 RMS=8.17D-08 Max=2.55D-06 NDo=     1
 LinEq1:  Iter=  9 NonCon=     1 RMS=2.45D-08 Max=4.37D-07 NDo=     1
 LinEq1:  Iter= 10 NonCon=     1 RMS=5.80D-09 Max=9.34D-08 NDo=     1
 LinEq1:  Iter= 11 NonCon=     0 RMS=1.93D-09 Max=4.07D-08 NDo=     1
 Linear equations converged to 4.365D-09 4.365D-08 after    11 iterations.
     Minimum is close to point  3 DX= -9.18D-02 DF= -2.35D-08 DXR=  5.08D-02 DFR=  4.90D-03 which will be used.
 LinEq1:  Iter=  0 NonCon=     1 RMS=5.22D-04 Max=2.28D-02 NDo=     1
 LinEq1:  Iter=  1 NonCon=     1 RMS=1.47D-04 Max=6.17D-03 NDo=     1
 LinEq1:  Iter=  2 NonCon=     1 RMS=3.97D-05 Max=8.64D-04 NDo=     1
 LinEq1:  Iter=  3 NonCon=     1 RMS=2.93D-05 Max=5.22D-04 NDo=     1
 LinEq1:  Iter=  4 NonCon=     1 RMS=1.29D-05 Max=2.19D-04 NDo=     1
 LinEq1:  Iter=  5 NonCon=     1 RMS=3.01D-06 Max=5.27D-05 NDo=     1
 LinEq1:  Iter=  6 NonCon=     1 RMS=9.59D-07 Max=1.19D-05 NDo=     1
 LinEq1:  Iter=  7 NonCon=     1 RMS=2.14D-07 Max=2.40D-06 NDo=     1
 LinEq1:  Iter=  8 NonCon=     1 RMS=6.01D-08 Max=1.89D-06 NDo=     1
 LinEq1:  Iter=  9 NonCon=     1 RMS=1.57D-08 Max=3.17D-07 NDo=     1
 LinEq1:  Iter= 10 NonCon=     1 RMS=5.12D-09 Max=1.03D-07 NDo=     1
 LinEq1:  Iter= 11 NonCon=     0 RMS=1.57D-09 Max=2.53D-08 NDo=     1
 Linear equations converged to 4.365D-09 4.365D-08 after    11 iterations.
     Minimum is close to point  3 DX= -7.86D-02 DF= -1.23D-08 DXR=  4.32D-02 DFR=  3.48D-03 which will be used.
 LinEq1:  Iter=  0 NonCon=     1 RMS=4.27D-04 Max=1.86D-02 NDo=     1
 LinEq1:  Iter=  1 NonCon=     1 RMS=1.15D-04 Max=4.75D-03 NDo=     1
 LinEq1:  Iter=  2 NonCon=     1 RMS=3.83D-05 Max=6.25D-04 NDo=     1
 LinEq1:  Iter=  3 NonCon=     1 RMS=3.22D-05 Max=5.35D-04 NDo=     1
 LinEq1:  Iter=  4 NonCon=     1 RMS=1.50D-05 Max=2.54D-04 NDo=     1
 LinEq1:  Iter=  5 NonCon=     1 RMS=3.67D-06 Max=7.28D-05 NDo=     1
 LinEq1:  Iter=  6 NonCon=     1 RMS=1.11D-06 Max=1.67D-05 NDo=     1
 LinEq1:  Iter=  7 NonCon=     1 RMS=2.73D-07 Max=4.10D-06 NDo=     1
 LinEq1:  Iter=  8 NonCon=     1 RMS=5.91D-08 Max=9.08D-07 NDo=     1
 LinEq1:  Iter=  9 NonCon=     1 RMS=1.15D-08 Max=1.52D-07 NDo=     1
 LinEq1:  Iter= 10 NonCon=     1 RMS=3.53D-09 Max=6.58D-08 NDo=     1
 LinEq1:  Iter= 11 NonCon=     1 RMS=2.16D-09 Max=6.63D-08 NDo=     1
 LinEq1:  Iter= 12 NonCon=     0 RMS=5.53D-10 Max=6.54D-09 NDo=     1
 Linear equations converged to 4.365D-09 4.365D-08 after    12 iterations.
     Accept linear search using points  2 and  3.
     Minimum is close to point  3 DX= -1.02D-01 DF= -1.20D-08 DXR=  5.39D-02 DFR=  5.05D-03 which will be used.
 LinEq1:  Iter=  0 NonCon=     1 RMS=4.34D-04 Max=1.89D-02 NDo=     1
 LinEq1:  Iter=  1 NonCon=     1 RMS=8.84D-05 Max=3.50D-03 NDo=     1
 LinEq1:  Iter=  2 NonCon=     1 RMS=3.30D-05 Max=6.86D-04 NDo=     1
 LinEq1:  Iter=  3 NonCon=     1 RMS=1.79D-05 Max=3.26D-04 NDo=     1
 LinEq1:  Iter=  4 NonCon=     1 RMS=1.06D-05 Max=1.43D-04 NDo=     1
 LinEq1:  Iter=  5 NonCon=     1 RMS=3.11D-06 Max=9.90D-05 NDo=     1
 LinEq1:  Iter=  6 NonCon=     1 RMS=7.37D-07 Max=9.72D-06 NDo=     1
 LinEq1:  Iter=  7 NonCon=     1 RMS=1.83D-07 Max=2.16D-06 NDo=     1
 LinEq1:  Iter=  8 NonCon=     1 RMS=4.28D-08 Max=9.64D-07 NDo=     1
 LinEq1:  Iter=  9 NonCon=     1 RMS=1.87D-08 Max=5.41D-07 NDo=     1
 LinEq1:  Iter= 10 NonCon=     1 RMS=5.92D-09 Max=1.33D-07 NDo=     1
 LinEq1:  Iter= 11 NonCon=     0 RMS=2.20D-09 Max=4.13D-08 NDo=     1
 Linear equations converged to 4.365D-09 4.365D-08 after    11 iterations.
     Accept linear search using points  3 and  4.
 LinEq1:  Iter=  0 NonCon=     1 RMS=2.20D-04 Max=9.61D-03 NDo=     1
 LinEq1:  Iter=  1 NonCon=     1 RMS=6.31D-05 Max=1.90D-03 NDo=     1
 LinEq1:  Iter=  2 NonCon=     1 RMS=3.78D-05 Max=9.88D-04 NDo=     1
 LinEq1:  Iter=  3 NonCon=     1 RMS=2.80D-05 Max=4.44D-04 NDo=     1
 LinEq1:  Iter=  4 NonCon=     1 RMS=1.98D-05 Max=3.55D-04 NDo=     1
 LinEq1:  Iter=  5 NonCon=     1 RMS=6.30D-06 Max=1.01D-04 NDo=     1
 LinEq1:  Iter=  6 NonCon=     1 RMS=1.97D-06 Max=3.39D-05 NDo=     1
 LinEq1:  Iter=  7 NonCon=     1 RMS=4.00D-07 Max=5.70D-06 NDo=     1
 LinEq1:  Iter=  8 NonCon=     1 RMS=7.76D-08 Max=1.27D-06 NDo=     1
 LinEq1:  Iter=  9 NonCon=     1 RMS=2.73D-08 Max=7.42D-07 NDo=     1
 LinEq1:  Iter= 10 NonCon=     1 RMS=1.53D-08 Max=4.25D-07 NDo=     1
 LinEq1:  Iter= 11 NonCon=     1 RMS=4.33D-09 Max=6.80D-08 NDo=     1
 LinEq1:  Iter= 12 NonCon=     0 RMS=1.24D-09 Max=2.85D-08 NDo=     1
 Linear equations converged to 4.365D-09 4.365D-08 after    12 iterations.
     Accept linear search using points  2 and  3.
     Minimum is close to point  3 DX= -1.50D-01 DF= -5.52D-09 DXR=  8.08D-02 DFR=  8.90D-03 which will be used.
 LinEq1:  Iter=  0 NonCon=     1 RMS=1.76D-04 Max=7.68D-03 NDo=     1
 LinEq1:  Iter=  1 NonCon=     1 RMS=4.99D-05 Max=9.74D-04 NDo=     1
 LinEq1:  Iter=  2 NonCon=     1 RMS=2.57D-05 Max=7.58D-04 NDo=     1
 LinEq1:  Iter=  3 NonCon=     1 RMS=1.43D-05 Max=2.78D-04 NDo=     1
 LinEq1:  Iter=  4 NonCon=     1 RMS=1.37D-05 Max=2.00D-04 NDo=     1
 LinEq1:  Iter=  5 NonCon=     1 RMS=6.14D-06 Max=1.09D-04 NDo=     1
 LinEq1:  Iter=  6 NonCon=     1 RMS=1.68D-06 Max=2.87D-05 NDo=     1
 LinEq1:  Iter=  7 NonCon=     1 RMS=2.51D-07 Max=3.30D-06 NDo=     1
 LinEq1:  Iter=  8 NonCon=     1 RMS=7.59D-08 Max=1.17D-06 NDo=     1
 LinEq1:  Iter=  9 NonCon=     1 RMS=1.71D-08 Max=3.47D-07 NDo=     1
 LinEq1:  Iter= 10 NonCon=     1 RMS=8.61D-09 Max=1.90D-07 NDo=     1
 LinEq1:  Iter= 11 NonCon=     1 RMS=3.92D-09 Max=1.12D-07 NDo=     1
 LinEq1:  Iter= 12 NonCon=     0 RMS=1.02D-09 Max=1.70D-08 NDo=     1
 Linear equations converged to 4.365D-09 4.365D-08 after    12 iterations.
     Accept linear search using points  2 and  3.
 LinEq1:  Iter=  0 NonCon=     1 RMS=8.49D-06 Max=3.58D-04 NDo=     1
 LinEq1:  Iter=  1 NonCon=     1 RMS=3.79D-05 Max=5.85D-04 NDo=     1
 LinEq1:  Iter=  2 NonCon=     1 RMS=1.86D-05 Max=4.24D-04 NDo=     1
 LinEq1:  Iter=  3 NonCon=     1 RMS=1.55D-05 Max=3.06D-04 NDo=     1
 LinEq1:  Iter=  4 NonCon=     1 RMS=1.23D-05 Max=2.84D-04 NDo=     1
 LinEq1:  Iter=  5 NonCon=     1 RMS=5.18D-06 Max=6.78D-05 NDo=     1
 LinEq1:  Iter=  6 NonCon=     1 RMS=1.42D-06 Max=3.22D-05 NDo=     1
 LinEq1:  Iter=  7 NonCon=     1 RMS=1.97D-07 Max=1.82D-06 NDo=     1
 LinEq1:  Iter=  8 NonCon=     1 RMS=4.72D-08 Max=7.73D-07 NDo=     1
 LinEq1:  Iter=  9 NonCon=     1 RMS=1.92D-08 Max=4.87D-07 NDo=     1
 LinEq1:  Iter= 10 NonCon=     1 RMS=9.96D-09 Max=2.62D-07 NDo=     1
 LinEq1:  Iter= 11 NonCon=     1 RMS=2.96D-09 Max=6.00D-08 NDo=     1
 LinEq1:  Iter= 12 NonCon=     0 RMS=6.10D-10 Max=1.07D-08 NDo=     1
 Linear equations converged to 4.365D-09 4.365D-08 after    12 iterations.
 LinEq1:  Iter=  0 NonCon=     1 RMS=2.93D-05 Max=1.28D-03 NDo=     1
 LinEq1:  Iter=  1 NonCon=     1 RMS=2.14D-05 Max=3.47D-04 NDo=     1
 LinEq1:  Iter=  2 NonCon=     1 RMS=1.09D-05 Max=2.12D-04 NDo=     1
 LinEq1:  Iter=  3 NonCon=     1 RMS=8.12D-06 Max=1.53D-04 NDo=     1
 LinEq1:  Iter=  4 NonCon=     1 RMS=6.87D-06 Max=1.71D-04 NDo=     1
 LinEq1:  Iter=  5 NonCon=     1 RMS=2.96D-06 Max=4.52D-05 NDo=     1
 LinEq1:  Iter=  6 NonCon=     1 RMS=8.99D-07 Max=1.61D-05 NDo=     1
 LinEq1:  Iter=  7 NonCon=     1 RMS=2.02D-07 Max=3.14D-06 NDo=     1
 LinEq1:  Iter=  8 NonCon=     1 RMS=5.26D-08 Max=9.68D-07 NDo=     1
 LinEq1:  Iter=  9 NonCon=     1 RMS=1.86D-08 Max=4.21D-07 NDo=     1
 LinEq1:  Iter= 10 NonCon=     1 RMS=7.82D-09 Max=1.87D-07 NDo=     1
 LinEq1:  Iter= 11 NonCon=     1 RMS=3.12D-09 Max=5.16D-08 NDo=     1
 LinEq1:  Iter= 12 NonCon=     0 RMS=9.90D-10 Max=1.81D-08 NDo=     1
 Linear equations converged to 4.176D-09 4.176D-08 after    12 iterations.
     Minimum is close to point  3 DX=  4.40D-03 DF= -6.82D-13 DXR=  1.09D-02 DFR=  9.34D-05 which will be used.
 LinEq1:  Iter=  0 NonCon=     1 RMS=1.84D-05 Max=8.01D-04 NDo=     1
 LinEq1:  Iter=  1 NonCon=     1 RMS=2.02D-05 Max=2.96D-04 NDo=     1
 LinEq1:  Iter=  2 NonCon=     1 RMS=8.33D-06 Max=1.69D-04 NDo=     1
 LinEq1:  Iter=  3 NonCon=     1 RMS=4.16D-06 Max=1.01D-04 NDo=     1
 LinEq1:  Iter=  4 NonCon=     1 RMS=4.02D-06 Max=8.68D-05 NDo=     1
 LinEq1:  Iter=  5 NonCon=     1 RMS=1.90D-06 Max=3.79D-05 NDo=     1
 LinEq1:  Iter=  6 NonCon=     1 RMS=5.42D-07 Max=1.37D-05 NDo=     1
 LinEq1:  Iter=  7 NonCon=     1 RMS=8.66D-08 Max=1.33D-06 NDo=     1
 LinEq1:  Iter=  8 NonCon=     1 RMS=2.77D-08 Max=5.19D-07 NDo=     1
 LinEq1:  Iter=  9 NonCon=     1 RMS=1.00D-08 Max=2.53D-07 NDo=     1
 LinEq1:  Iter= 10 NonCon=     1 RMS=3.89D-09 Max=6.60D-08 NDo=     1
 LinEq1:  Iter= 11 NonCon=     0 RMS=1.37D-09 Max=2.00D-08 NDo=     1
 Linear equations converged to 2.406D-09 2.406D-08 after    11 iterations.
 Incorrect curvature in search direction -- initial direction reversed.
 Search did not lower the energy significantly.
 No lower point found -- switch to scaled steepest descent.
     Minimum is close to point  3 DX= -7.00D-03 DF= -2.27D-12 DXR=  2.39D-02 DFR=  6.28D-04 which will be used.
 LinEq1:  Iter=  0 NonCon=     1 RMS=1.26D-05 Max=5.48D-04 NDo=     1
 LinEq1:  Iter=  1 NonCon=     1 RMS=1.66D-05 Max=2.85D-04 NDo=     1
 LinEq1:  Iter=  2 NonCon=     1 RMS=6.80D-06 Max=1.42D-04 NDo=     1
 LinEq1:  Iter=  3 NonCon=     1 RMS=3.92D-06 Max=9.03D-05 NDo=     1
 LinEq1:  Iter=  4 NonCon=     1 RMS=4.06D-06 Max=8.60D-05 NDo=     1
 LinEq1:  Iter=  5 NonCon=     1 RMS=1.61D-06 Max=3.45D-05 NDo=     1
 LinEq1:  Iter=  6 NonCon=     1 RMS=5.09D-07 Max=1.13D-05 NDo=     1
 LinEq1:  Iter=  7 NonCon=     1 RMS=1.71D-07 Max=1.74D-06 NDo=     1
 LinEq1:  Iter=  8 NonCon=     1 RMS=3.03D-08 Max=7.55D-07 NDo=     1
 LinEq1:  Iter=  9 NonCon=     1 RMS=8.99D-09 Max=2.25D-07 NDo=     1
 LinEq1:  Iter= 10 NonCon=     1 RMS=3.35D-09 Max=5.14D-08 NDo=     1
 LinEq1:  Iter= 11 NonCon=     1 RMS=1.06D-09 Max=1.87D-08 NDo=     1
 LinEq1:  Iter= 12 NonCon=     0 RMS=2.18D-10 Max=2.86D-09 NDo=     1
 Linear equations converged to 1.602D-09 1.602D-08 after    12 iterations.
     Accept linear search using points  1 and  2.
 LinEq1:  Iter=  0 NonCon=     1 RMS=7.41D-07 Max=1.37D-05 NDo=     1
 LinEq1:  Iter=  1 NonCon=     1 RMS=1.36D-06 Max=5.20D-05 NDo=     1
 LinEq1:  Iter=  2 NonCon=     1 RMS=4.25D-06 Max=6.00D-05 NDo=     1
 LinEq1:  Iter=  3 NonCon=     1 RMS=5.63D-06 Max=1.03D-04 NDo=     1
 LinEq1:  Iter=  4 NonCon=     1 RMS=4.03D-06 Max=1.03D-04 NDo=     1
 LinEq1:  Iter=  5 NonCon=     1 RMS=1.68D-06 Max=2.98D-05 NDo=     1
 LinEq1:  Iter=  6 NonCon=     1 RMS=4.65D-07 Max=7.14D-06 NDo=     1
 LinEq1:  Iter=  7 NonCon=     1 RMS=1.11D-07 Max=1.93D-06 NDo=     1
 LinEq1:  Iter=  8 NonCon=     1 RMS=2.97D-08 Max=5.60D-07 NDo=     1
 LinEq1:  Iter=  9 NonCon=     1 RMS=1.05D-08 Max=2.97D-07 NDo=     1
 LinEq1:  Iter= 10 NonCon=     1 RMS=3.97D-09 Max=6.61D-08 NDo=     1
 LinEq1:  Iter= 11 NonCon=     0 RMS=1.36D-09 Max=2.31D-08 NDo=     1
 Linear equations converged to 2.806D-09 2.806D-08 after    11 iterations.
 LinEq1:  Iter=  0 NonCon=     1 RMS=7.48D-07 Max=1.77D-05 NDo=     1
 LinEq1:  Iter=  1 NonCon=     1 RMS=3.72D-06 Max=1.36D-04 NDo=     1
 LinEq1:  Iter=  2 NonCon=     1 RMS=4.75D-06 Max=6.26D-05 NDo=     1
 LinEq1:  Iter=  3 NonCon=     1 RMS=5.20D-06 Max=8.89D-05 NDo=     1
 LinEq1:  Iter=  4 NonCon=     1 RMS=3.25D-06 Max=9.07D-05 NDo=     1
 LinEq1:  Iter=  5 NonCon=     1 RMS=1.55D-06 Max=3.61D-05 NDo=     1
 LinEq1:  Iter=  6 NonCon=     1 RMS=4.74D-07 Max=7.79D-06 NDo=     1
 LinEq1:  Iter=  7 NonCon=     1 RMS=8.73D-08 Max=1.24D-06 NDo=     1
 LinEq1:  Iter=  8 NonCon=     1 RMS=2.38D-08 Max=4.08D-07 NDo=     1
 LinEq1:  Iter=  9 NonCon=     1 RMS=6.09D-09 Max=1.50D-07 NDo=     1
 LinEq1:  Iter= 10 NonCon=     0 RMS=1.60D-09 Max=2.88D-08 NDo=     1
 Linear equations converged to 3.139D-09 3.139D-08 after    10 iterations.
     Accept linear search using points  1 and  2.
     Minimum is close to point  2 DX= -2.25D-02 DF= -1.82D-12 DXR=  2.30D-02 DFR=  5.57D-04 which will be used.
 LinEq1:  Iter=  0 NonCon=     1 RMS=1.98D-06 Max=8.62D-05 NDo=     1
 LinEq1:  Iter=  1 NonCon=     1 RMS=1.23D-06 Max=2.51D-05 NDo=     1
 LinEq1:  Iter=  2 NonCon=     1 RMS=1.04D-06 Max=3.78D-05 NDo=     1
 LinEq1:  Iter=  3 NonCon=     1 RMS=3.90D-07 Max=4.02D-06 NDo=     1
 LinEq1:  Iter=  4 NonCon=     1 RMS=3.15D-07 Max=4.13D-06 NDo=     1
 LinEq1:  Iter=  5 NonCon=     1 RMS=1.14D-07 Max=2.23D-06 NDo=     1
 LinEq1:  Iter=  6 NonCon=     1 RMS=2.72D-08 Max=5.06D-07 NDo=     1
 LinEq1:  Iter=  7 NonCon=     1 RMS=8.19D-09 Max=1.15D-07 NDo=     1
 LinEq1:  Iter=  8 NonCon=     1 RMS=2.35D-09 Max=4.77D-08 NDo=     1
 LinEq1:  Iter=  9 NonCon=     1 RMS=9.20D-10 Max=2.98D-08 NDo=     1
 LinEq1:  Iter= 10 NonCon=     1 RMS=3.61D-10 Max=6.59D-09 NDo=     1
 LinEq1:  Iter= 11 NonCon=     1 RMS=1.01D-10 Max=2.06D-09 NDo=     1
 LinEq1:  Iter= 12 NonCon=     0 RMS=2.74D-11 Max=5.79D-10 NDo=     1
 Linear equations converged to 1.490D-10 1.490D-09 after    12 iterations.
 LinEq1:  Iter=  0 NonCon=     1 RMS=7.64D-08 Max=1.56D-06 NDo=     1
 LinEq1:  Iter=  1 NonCon=     1 RMS=3.38D-07 Max=1.29D-05 NDo=     1
 LinEq1:  Iter=  2 NonCon=     1 RMS=6.48D-07 Max=2.18D-05 NDo=     1
 LinEq1:  Iter=  3 NonCon=     1 RMS=1.88D-07 Max=2.06D-06 NDo=     1
 LinEq1:  Iter=  4 NonCon=     1 RMS=1.66D-07 Max=2.68D-06 NDo=     1
 LinEq1:  Iter=  5 NonCon=     1 RMS=7.53D-08 Max=2.11D-06 NDo=     1
 LinEq1:  Iter=  6 NonCon=     1 RMS=2.77D-08 Max=3.05D-07 NDo=     1
 LinEq1:  Iter=  7 NonCon=     1 RMS=7.02D-09 Max=8.48D-08 NDo=     1
 LinEq1:  Iter=  8 NonCon=     1 RMS=1.99D-09 Max=2.46D-08 NDo=     1
 LinEq1:  Iter=  9 NonCon=     1 RMS=6.57D-10 Max=8.94D-09 NDo=     1
 LinEq1:  Iter= 10 NonCon=     1 RMS=2.35D-10 Max=6.11D-09 NDo=     1
 LinEq1:  Iter= 11 NonCon=     1 RMS=8.59D-11 Max=1.54D-09 NDo=     1
 LinEq1:  Iter= 12 NonCon=     0 RMS=2.98D-11 Max=3.77D-10 NDo=     1
 Linear equations converged to 9.315D-11 9.315D-10 after    12 iterations.
 LinEq1:  Iter=  0 NonCon=     1 RMS=1.33D-08 Max=1.69D-07 NDo=     1
 LinEq1:  Iter=  1 NonCon=     1 RMS=5.48D-08 Max=2.38D-06 NDo=     1
 LinEq1:  Iter=  2 NonCon=     1 RMS=9.63D-08 Max=1.91D-06 NDo=     1
 LinEq1:  Iter=  3 NonCon=     1 RMS=3.57D-08 Max=9.50D-07 NDo=     1
 LinEq1:  Iter=  4 NonCon=     1 RMS=2.35D-08 Max=2.79D-07 NDo=     1
 LinEq1:  Iter=  5 NonCon=     1 RMS=1.67D-08 Max=2.07D-07 NDo=     1
 LinEq1:  Iter=  6 NonCon=     1 RMS=4.88D-09 Max=7.07D-08 NDo=     1
 LinEq1:  Iter=  7 NonCon=     1 RMS=1.03D-09 Max=1.63D-08 NDo=     1
 LinEq1:  Iter=  8 NonCon=     1 RMS=2.65D-10 Max=6.41D-09 NDo=     1
 LinEq1:  Iter=  9 NonCon=     1 RMS=1.33D-10 Max=3.10D-09 NDo=     1
 LinEq1:  Iter= 10 NonCon=     1 RMS=5.15D-11 Max=8.30D-10 NDo=     1
 LinEq1:  Iter= 11 NonCon=     1 RMS=1.38D-11 Max=3.47D-10 NDo=     1
 LinEq1:  Iter= 12 NonCon=     0 RMS=4.91D-12 Max=7.42D-11 NDo=     1
 Linear equations converged to 2.276D-11 2.276D-10 after    12 iterations.
 LinEq1:  Iter=  0 NonCon=     1 RMS=8.78D-09 Max=1.42D-07 NDo=     1
 LinEq1:  Iter=  1 NonCon=     1 RMS=1.33D-07 Max=5.81D-06 NDo=     1
 LinEq1:  Iter=  2 NonCon=     1 RMS=7.90D-08 Max=1.65D-06 NDo=     1
 LinEq1:  Iter=  3 NonCon=     1 RMS=7.66D-08 Max=9.79D-07 NDo=     1
 LinEq1:  Iter=  4 NonCon=     1 RMS=4.14D-08 Max=9.59D-07 NDo=     1
 LinEq1:  Iter=  5 NonCon=     1 RMS=1.98D-08 Max=3.01D-07 NDo=     1
 LinEq1:  Iter=  6 NonCon=     1 RMS=6.47D-09 Max=8.77D-08 NDo=     1
 LinEq1:  Iter=  7 NonCon=     1 RMS=1.25D-09 Max=2.01D-08 NDo=     1
 LinEq1:  Iter=  8 NonCon=     1 RMS=3.03D-10 Max=3.90D-09 NDo=     1
 LinEq1:  Iter=  9 NonCon=     1 RMS=1.16D-10 Max=2.63D-09 NDo=     1
 LinEq1:  Iter= 10 NonCon=     1 RMS=4.82D-11 Max=8.40D-10 NDo=     1
 LinEq1:  Iter= 11 NonCon=     1 RMS=1.45D-11 Max=2.26D-10 NDo=     1
 LinEq1:  Iter= 12 NonCon=     0 RMS=4.74D-12 Max=7.57D-11 NDo=     1
 Linear equations converged to 2.214D-11 2.214D-10 after    12 iterations.
 LinEq1:  Iter=  0 NonCon=     1 RMS=4.66D-09 Max=7.48D-08 NDo=     1
 LinEq1:  Iter=  1 NonCon=     1 RMS=1.68D-08 Max=7.29D-07 NDo=     1
 LinEq1:  Iter=  2 NonCon=     1 RMS=2.58D-08 Max=3.85D-07 NDo=     1
 LinEq1:  Iter=  3 NonCon=     1 RMS=9.94D-09 Max=2.64D-07 NDo=     1
 LinEq1:  Iter=  4 NonCon=     1 RMS=7.62D-09 Max=1.75D-07 NDo=     1
 LinEq1:  Iter=  5 NonCon=     1 RMS=6.67D-09 Max=1.32D-07 NDo=     1
 LinEq1:  Iter=  6 NonCon=     1 RMS=2.22D-09 Max=3.23D-08 NDo=     1
 LinEq1:  Iter=  7 NonCon=     1 RMS=5.46D-10 Max=1.05D-08 NDo=     1
 LinEq1:  Iter=  8 NonCon=     1 RMS=1.07D-10 Max=1.60D-09 NDo=     1
 LinEq1:  Iter=  9 NonCon=     1 RMS=3.03D-11 Max=3.66D-10 NDo=     1
 LinEq1:  Iter= 10 NonCon=     1 RMS=9.49D-12 Max=2.19D-10 NDo=     1
 LinEq1:  Iter= 11 NonCon=     0 RMS=2.90D-12 Max=3.51D-11 NDo=     1
 Linear equations converged to 6.871D-12 6.871D-11 after    11 iterations.
 LinEq1:  Iter=  0 NonCon=     1 RMS=2.90D-08 Max=4.54D-07 NDo=     1
 LinEq1:  Iter=  1 NonCon=     1 RMS=1.70D-07 Max=7.25D-06 NDo=     1
 LinEq1:  Iter=  2 NonCon=     1 RMS=1.58D-07 Max=2.31D-06 NDo=     1
 LinEq1:  Iter=  3 NonCon=     1 RMS=6.02D-08 Max=1.59D-06 NDo=     1
 LinEq1:  Iter=  4 NonCon=     1 RMS=4.52D-08 Max=1.01D-06 NDo=     1
 LinEq1:  Iter=  5 NonCon=     1 RMS=4.04D-08 Max=7.57D-07 NDo=     1
 LinEq1:  Iter=  6 NonCon=     1 RMS=1.34D-08 Max=2.02D-07 NDo=     1
 LinEq1:  Iter=  7 NonCon=     1 RMS=3.42D-09 Max=6.58D-08 NDo=     1
 LinEq1:  Iter=  8 NonCon=     1 RMS=6.73D-10 Max=9.97D-09 NDo=     1
 LinEq1:  Iter=  9 NonCon=     1 RMS=2.03D-10 Max=2.62D-09 NDo=     1
 LinEq1:  Iter= 10 NonCon=     1 RMS=9.59D-11 Max=2.92D-09 NDo=     1
 LinEq1:  Iter= 11 NonCon=     1 RMS=3.42D-11 Max=7.38D-10 NDo=     1
 LinEq1:  Iter= 12 NonCon=     0 RMS=1.37D-11 Max=2.35D-10 NDo=     1
 Linear equations converged to 4.090D-11 4.090D-10 after    12 iterations.
 LinEq1:  Iter=  0 NonCon=     1 RMS=6.04D-09 Max=1.20D-07 NDo=     1
 LinEq1:  Iter=  1 NonCon=     1 RMS=2.61D-08 Max=1.01D-06 NDo=     1
 LinEq1:  Iter=  2 NonCon=     1 RMS=4.85D-08 Max=1.01D-06 NDo=     1
 LinEq1:  Iter=  3 NonCon=     1 RMS=1.92D-08 Max=6.10D-07 NDo=     1
 LinEq1:  Iter=  4 NonCon=     1 RMS=7.40D-09 Max=9.03D-08 NDo=     1
 LinEq1:  Iter=  5 NonCon=     1 RMS=6.31D-09 Max=7.70D-08 NDo=     1
 LinEq1:  Iter=  6 NonCon=     1 RMS=2.33D-09 Max=3.63D-08 NDo=     1
 LinEq1:  Iter=  7 NonCon=     1 RMS=5.59D-10 Max=8.63D-09 NDo=     1
 LinEq1:  Iter=  8 NonCon=     1 RMS=1.59D-10 Max=2.26D-09 NDo=     1
 LinEq1:  Iter=  9 NonCon=     1 RMS=5.97D-11 Max=1.19D-09 NDo=     1
 LinEq1:  Iter= 10 NonCon=     1 RMS=2.48D-11 Max=7.75D-10 NDo=     1
 LinEq1:  Iter= 11 NonCon=     1 RMS=9.48D-12 Max=1.67D-10 NDo=     1
 LinEq1:  Iter= 12 NonCon=     0 RMS=3.54D-12 Max=6.90D-11 NDo=     1
 Linear equations converged to 7.627D-12 7.627D-11 after    12 iterations.
 Search did not lower the energy significantly.
 No lower point found -- using Newton-Raphson step.
 SCF Done:  E(UB3LYP) =  -1715.99695932     a.u. after   24 cycles
            Convg  =    0.1377D-06                   340 Fock formations.
              S**2 =  0.7526                  -V/T =  2.0005
 <Sx>= 0.0000 <Sy>= 0.0000 <Sz>= 0.5000 <S**2>= 0.7526 S= 0.5013
 <L.S>= 0.000000000000E+00
 Annihilation of the first spin contaminant:
 S**2 before annihilation     0.7526,   after     0.7500
 Calling FoFJK, ICntrl=      2127 FMM=F ISym2X=1 I1Cent= 0 IOpClX= 1 NMat=1 NMatS=1 NMatT=0.
 ***** Axes restored to original set *****
 -------------------------------------------------------------------
 Center     Atomic                   Forces (Hartrees/Bohr)
 Number     Number              X              Y              Z
 -------------------------------------------------------------------
      1       29           0.000280015   -0.007475619    0.000000000
      2        8          -0.000228823    0.006760421    0.000000003
      3        1          -0.000025596    0.000357597    0.000255122
      4        1          -0.000025596    0.000357602   -0.000255125
 -------------------------------------------------------------------
 Cartesian Forces:  Max     0.007475619 RMS     0.002916993

 GradGradGradGradGradGradGradGradGradGradGradGradGradGradGradGradGradGrad
 Berny optimization.
 Using GEDIIS/GDIIS optimizer.
 FormGI is forming the generalized inverse of G from B-inverse, IUseBI=4.
 Internal  Forces:  Max     0.007480855 RMS     0.002837428
 Search for a local minimum.
 Step number   3 out of a maximum of  100 on scan point     1 out of    26
 All quantities printed in internal units (Hartrees-Bohrs-Radians)
 Mixed Optimization -- En-DIIS/RFO-DIIS
 Update second derivatives using D2CorX and points    1    2    3
 DE= -2.60D-04 DEPred=-1.62D-04 R= 1.61D+00
 TightC=F SS=  1.41D+00  RLast= 2.20D-01 DXNew= 8.4853D-01 6.6021D-01
 Trust test= 1.61D+00 RLast= 2.20D-01 DXMaxT set to 6.60D-01
 The second derivative matrix:
                          R1        R2        R3        A1        A2
           R1           0.00872
           R2           0.00008   0.49576
           R3           0.00008  -0.00090   0.49576
           A1          -0.00004   0.00212   0.00212   0.14966
           A2          -0.00013   0.00096   0.00096  -0.01157   0.14820
           A3          -0.00034   0.00619   0.00619  -0.02803  -0.01882
           D1          -0.00033  -0.00212  -0.00212  -0.01138  -0.00892
                          A3        D1
           A3           0.14593
           D1           0.00837   0.01189
 ITU=  1  1  0
 Use linear search instead of GDIIS.
     Eigenvalues ---    0.01043   0.15848   0.17764   0.49496   0.49666
     Eigenvalues --- 1000.000001000.00000
 RFO step:  Lambda=-9.48296077D-07 EMin= 1.04301455D-02
 Quartic linear search produced a step of  0.00691.
 Iteration  1 RMS(Cart)=  0.00049150 RMS(Int)=  0.00003363
 Iteration  2 RMS(Cart)=  0.00000026 RMS(Int)=  0.00003363
 Iteration  1 RMS(Cart)=  0.00000020 RMS(Int)=  0.00000000
 ClnCor:  largest displacement from symmetrization is 8.74D-05 for atom     4.
 Variable       Old X    -DE/DX   Delta X   Delta X   Delta X     New X
                                 (Linear)    (Quad)   (Total)
    R1        7.31193   0.00748   0.00000   0.00000   0.00000   7.31193
    R2        1.86859   0.00042   0.00001   0.00085   0.00083   1.86942
    R3        1.86859   0.00042   0.00001   0.00085   0.00083   1.86942
    A1        2.20288   0.00009   0.00015   0.00038   0.00050   2.20338
    A2        2.20288   0.00009   0.00015   0.00045   0.00050   2.20338
    A3        1.87741  -0.00017  -0.00015  -0.00083  -0.00099   1.87642
    D1        3.13755  -0.00002   0.00150  -0.00132   0.00018   3.13773
         Item               Value     Threshold  Converged?
 Maximum Force            0.000418     0.000450     YES
 RMS     Force            0.000256     0.000300     YES
 Maximum Displacement     0.000644     0.001800     YES
 RMS     Displacement     0.000475     0.001200     YES
 Predicted change in Energy=-4.920377D-07
 Optimization completed.
    -- Stationary point found.
                           ----------------------------
                           !   Optimized Parameters   !
                           ! (Angstroms and Degrees)  !
 --------------------------                            --------------------------
 ! Name  Definition              Value          Derivative Info.                !
 --------------------------------------------------------------------------------
 ! R1    R(1,2)                  3.8693         -DE/DX =    0.0075              !
 ! R2    R(2,3)                  0.9888         -DE/DX =    0.0004              !
 ! R3    R(2,4)                  0.9888         -DE/DX =    0.0004              !
 ! A1    A(1,2,3)              126.2159         -DE/DX =    0.0001              !
 ! A2    A(1,2,4)              126.2159         -DE/DX =    0.0001              !
 ! A3    A(3,2,4)              107.5678         -DE/DX =   -0.0002              !
 ! D1    D(1,2,4,3)            179.7684         -DE/DX =    0.0                 !
 --------------------------------------------------------------------------------
 Iteration  1 RMS(Cart)=  0.06185560 RMS(Int)=  0.00000008
 Iteration  2 RMS(Cart)=  0.00000005 RMS(Int)=  0.00000000
 Iteration  1 RMS(Cart)=  0.00000020 RMS(Int)=  0.00000000
 GradGradGradGradGradGradGradGradGradGradGradGradGradGradGradGradGradGrad

                          Input orientation:                          
 ---------------------------------------------------------------------
 Center     Atomic      Atomic             Coordinates (Angstroms)
 Number     Number       Type             X           Y           Z
 ---------------------------------------------------------------------
      1         29           0        0.026047   -0.448917    0.000000
      2          8           0       -0.119560    3.317576    0.000000
      3          1           0       -0.143974    3.901945    0.797834
      4          1           0       -0.143974    3.901945   -0.797834
 ---------------------------------------------------------------------
                    Distance matrix (angstroms):
                    1          2          3          4
     1  Cu   0.000000
     2  O    3.769306   0.000000
     3  H    4.426674   0.989254   0.000000
     4  H    4.426674   0.989254   1.595669   0.000000
 Stoichiometry    CuH2O(2+,2)
 Framework group  CS[SG(CuO),X(H2)]
 Deg. of freedom     4
 Full point group                 CS      NOp   2
 Largest Abelian subgroup         CS      NOp   2
 Largest concise Abelian subgroup CS      NOp   2
                         Standard orientation:                         
 ---------------------------------------------------------------------
 Center     Atomic      Atomic             Coordinates (Angstroms)
 Number     Number       Type             X           Y           Z
[...]
 Mixed Optimization -- En-DIIS/RFO-DIIS
 Swapping is turned off.
 Update second derivatives using D2CorX and points    1    2    3    4
 DE= -3.99D-07 DEPred=-3.73D-07 R= 1.07D+00
 Trust test= 1.07D+00 RLast= 3.86D-03 DXMaxT set to 3.30D-01
 The second derivative matrix:
                          R1        R2        R3        A1        A2
           R1           0.02392
           R2           0.02182   0.45525
           R3           0.02182  -0.04142   0.45525
           A1           0.01866  -0.01071  -0.01071   0.13380
           A2           0.01798  -0.00948  -0.00948  -0.02382   0.14093
           A3          -0.02791   0.01913   0.01913  -0.01482  -0.01146
           D1          -0.00543   0.00496   0.00496  -0.00914   0.00024
                          A3        D1
           A3           0.12451
           D1          -0.00523   0.04939
 ITU=  0  1  1  0
     Eigenvalues ---    0.04750   0.13431   0.16176   0.41803   0.49666
     Eigenvalues --- 1000.000001000.00000
 En-DIIS/RFO-DIIS IScMMF=        0 using points:     4    3    2
 RFO step:  Lambda=-1.13052182D-02.
 DidBck=F Rises=F RFO-DIIS coefs:    1.18650   -0.13308   -0.05343
 Iteration  1 RMS(Cart)=  0.00001915 RMS(Int)=  0.00000067
 Iteration  2 RMS(Cart)=  0.00000000 RMS(Int)=  0.00000067
 Iteration  1 RMS(Cart)=  0.00000000 RMS(Int)=  0.00000000
 ClnCor:  largest displacement from symmetrization is 9.37D-07 for atom     4.
 Variable       Old X    -DE/DX   Delta X   Delta X   Delta X     New X
                                 (Linear)    (Quad)   (Total)
    R1        2.58761   0.59802   0.00000   0.00000   0.00000   2.58761
    R2        1.89877   0.00001   0.00003  -0.00001   0.00002   1.89880
    R3        1.89877   0.00001   0.00003  -0.00001   0.00002   1.89880
    A1        2.22188   0.00000  -0.00003   0.00001  -0.00002   2.22187
    A2        2.22188   0.00000  -0.00003   0.00001  -0.00002   2.22187
    A3        1.80129   0.00000   0.00005  -0.00002   0.00002   1.80132
    D1        2.86292   0.00000  -0.00004   0.00000  -0.00004   2.86288
         Item               Value     Threshold  Converged?
 Maximum Force            0.000008     0.000450     YES
 RMS     Force            0.000005     0.000300     YES
 Maximum Displacement     0.000031     0.001800     YES
 RMS     Displacement     0.000019     0.001200     YES
 Predicted change in Energy=-2.645556D-10
 Optimization completed.
    -- Stationary point found.
                           ----------------------------
                           !   Optimized Parameters   !
                           ! (Angstroms and Degrees)  !
 --------------------------                            --------------------------
 ! Name  Definition              Value          Derivative Info.                !
 --------------------------------------------------------------------------------
 ! R1    R(1,2)                  1.3693         -DE/DX =    0.598               !
 ! R2    R(2,3)                  1.0048         -DE/DX =    0.0                 !
 ! R3    R(2,4)                  1.0048         -DE/DX =    0.0                 !
 ! A1    A(1,2,3)              127.3046         -DE/DX =    0.0                 !
 ! A2    A(1,2,4)              127.3046         -DE/DX =    0.0                 !
 ! A3    A(3,2,4)              103.2065         -DE/DX =    0.0                 !
 ! D1    D(1,2,4,3)            164.0331         -DE/DX =    0.0                 !
 --------------------------------------------------------------------------------
 GradGradGradGradGradGradGradGradGradGradGradGradGradGradGradGradGradGrad

 Summary of Optimized Potential Surface Scan
                           1         2         3         4         5
     Eigenvalues --  **************************************************
           R1           3.86931   3.76931   3.66931   3.56931   3.46931
           R2           0.98881   0.98931   0.98927   0.98921   0.98914
           R3           0.98881   0.98931   0.98927   0.98921   0.98914
           A1         126.21589 126.29399 126.32081 126.34412 126.35859
           A2         126.21589 126.29399 126.32081 126.34412 126.35859
           A3         107.56777 107.40434 107.34020 107.27517 107.21553
           D1         179.76844 179.04023 178.52218 177.90480 177.15913
                           6         7         8         9        10
     Eigenvalues --  **************************************************
           R1           3.36931   3.26931   3.16931   3.06931   2.96931
           R2           0.98905   0.98894   0.98882   0.98868   0.98849
           R3           0.98905   0.98894   0.98882   0.98868   0.98849
           A1         126.34906 126.28318 126.16620 126.02228 125.73036
           A2         126.34906 126.28318 126.16620 126.02228 125.73036
           A3         107.15841 107.10832 107.10825 107.07912 107.13333
           D1         175.85309 173.75794 171.81853 169.76566 167.04625
                          11        12        13        14        15
     Eigenvalues --  **************************************************
           R1           2.86931   2.76931   2.66931   2.56931   2.46931
           R2           0.98829   0.98805   0.98774   0.98741   0.98702
           R3           0.98829   0.98805   0.98774   0.98741   0.98702
           A1         125.45569 125.06315 124.65683 124.21731 123.82684
           A2         125.45569 125.06315 124.65683 124.21731 123.82684
           A3         107.16498 107.27033 107.38290 107.51975 107.69770
           D1         164.85936 162.40029 160.19008 158.09356 156.52634
                          16        17        18        19        20
     Eigenvalues --  **************************************************
           R1           2.36931   2.26931   2.16931   2.06931   1.96931
           R2           0.98661   0.98622   0.98622   0.98574   0.98584
           R3           0.98661   0.98622   0.98622   0.98574   0.98584
           A1         123.50305 123.29631 123.30175 123.30589 123.61682
           A2         123.50305 123.29631 123.30175 123.30589 123.61682
           A3         107.87312 108.03048 108.02466 108.19636 108.15889
           D1         155.36675 154.75507 154.76722 155.17343 156.59527
                          21        22        23        24        25
     Eigenvalues --  **************************************************
           R1           1.86931   1.76931   1.66931   1.56931   1.46931
           R2           0.98623   0.98714   0.98886   0.99163   0.99662
           R3           0.98623   0.98714   0.98886   0.99163   0.99662
           A1         124.04111 124.52969 125.13821 125.82531 126.49484
           A2         124.04111 124.52969 125.13821 125.82531 126.49484
           A3         108.01159 107.74743 107.23300 106.36040 105.07875
           D1         158.43739 160.49897 162.78452 164.64021 164.91208
                          26
     Eigenvalues --  **********
           R1           1.36931
           R2           1.00479
           R3           1.00479
           A1         127.30463
           A2         127.30463
           A3         103.20652
           D1         164.03308
                          Input orientation:                          
 ---------------------------------------------------------------------
 Center     Atomic      Atomic             Coordinates (Angstroms)
 Number     Number       Type             X           Y           Z
 ---------------------------------------------------------------------
      1         29           0       -0.043106    1.335854    0.000000
      2          8           0       -0.026638    2.705061    0.000000
      3          1           0       -0.155857    3.315613    0.787481
      4          1           0       -0.155857    3.315613   -0.787481
 ---------------------------------------------------------------------
                    Distance matrix (angstroms):
                    1          2          3          4
     1  Cu   0.000000
     2  O    1.369306   0.000000
     3  H    2.133609   1.004787   0.000000
     4  H    2.133609   1.004787   1.574962   0.000000
 Stoichiometry    CuH2O(2+,2)
 Framework group  CS[SG(CuO),X(H2)]
 Deg. of freedom     4
 Full point group                 CS      NOp   2
 Largest Abelian subgroup         CS      NOp   2
 Largest concise Abelian subgroup CS      NOp   2
                         Standard orientation:                         
 ---------------------------------------------------------------------
 Center     Atomic      Atomic             Coordinates (Angstroms)
 Number     Number       Type             X           Y           Z
 ---------------------------------------------------------------------
      1         29           0        0.007003   -0.382333    0.000000
      2          8           0        0.007003    0.986973    0.000000
      3          1           0       -0.129550    1.595928    0.787481
      4          1           0       -0.129550    1.595928   -0.787481
 ---------------------------------------------------------------------
 Rotational constants (GHZ):    394.9632036     17.0537861     16.3792819

 **********************************************************************

            Population analysis using the SCF density.

 **********************************************************************

 Orbital symmetries:
 Alpha Orbitals:
       Occupied  (A') (A') (A') (A') (A") (A') (A') (A') (A') (A")
                 (A') (A') (A") (A') (A") (A') (A") (A') (A')
       Virtual   (A') (A') (A") (A') (A") (A') (A') (A') (A") (A')
                 (A') (A") (A") (A') (A') (A') (A") (A') (A") (A')
                 (A') (A") (A') (A') (A") (A') (A") (A') (A") (A')
                 (A') (A') (A") (A') (A") (A') (A") (A') (A') (A")
                 (A') (A') (A") (A') (A') (A') (A") (A') (A') (A')
                 (A')
 Beta  Orbitals:
       Occupied  (A') (A') (A') (A') (A") (A') (A') (A') (A') (A")
                 (A') (A') (A") (A') (A") (A') (A") (A')
       Virtual   (A') (A') (A') (A") (A') (A") (A') (A') (A') (A")
                 (A') (A') (A") (A") (A') (A') (A') (A") (A') (A")
                 (A') (A') (A") (A') (A') (A") (A') (A") (A') (A")
                 (A') (A') (A') (A") (A') (A") (A') (A") (A') (A')
                 (A") (A') (A') (A") (A') (A') (A') (A") (A') (A')
                 (A') (A')
 The electronic state is 2-A'.
 Alpha  occ. eigenvalues -- -323.67646 -39.49130 -34.73113 -34.70173 -34.69580
 Alpha  occ. eigenvalues --  -19.77284  -5.03247  -3.58376  -3.50674  -3.49385
 Alpha  occ. eigenvalues --   -1.68166  -1.21564  -1.19199  -1.10278  -0.97919
 Alpha  occ. eigenvalues --   -0.97439  -0.96680  -0.92510  -0.90134
 Alpha virt. eigenvalues --   -0.58466  -0.43128  -0.38162  -0.22925  -0.20129
 Alpha virt. eigenvalues --   -0.07631   0.10465   0.15959   0.23514   0.50846
 Alpha virt. eigenvalues --    0.68654   0.73297   0.80051   0.81266   0.85481
 Alpha virt. eigenvalues --    0.87615   1.09297   1.43585   1.49740   1.54692
 Alpha virt. eigenvalues --    2.01935   2.10190   2.21117   2.41925   2.55664
 Alpha virt. eigenvalues --    3.06629   3.28688   3.29017   3.29047   3.29600
 Alpha virt. eigenvalues --    3.47860   3.56369   3.63133   4.22142   4.35744
 Alpha virt. eigenvalues --    5.22262   6.48988   6.49207   6.53387   6.57890
 Alpha virt. eigenvalues --    6.68525   8.66634   8.77220   9.39839  31.45537
 Alpha virt. eigenvalues --   42.08347  42.16069  42.61116  49.15682 183.47764
 Alpha virt. eigenvalues --  978.74380
  Beta  occ. eigenvalues -- -323.67589 -39.47167 -34.70530 -34.68835 -34.68729
  Beta  occ. eigenvalues --  -19.76734  -4.99238  -3.50940  -3.47578  -3.47520
  Beta  occ. eigenvalues --   -1.66592  -1.18551  -1.18474  -1.05730  -0.96157
  Beta  occ. eigenvalues --   -0.95295  -0.94675  -0.88596
  Beta virt. eigenvalues --   -0.73800  -0.56984  -0.42801  -0.37947  -0.22988
  Beta virt. eigenvalues --   -0.19764  -0.07316   0.11804   0.17716   0.24031
  Beta virt. eigenvalues --    0.51835   0.70426   0.74268   0.81619   0.82902
  Beta virt. eigenvalues --    0.88462   0.89208   1.10294   1.46147   1.49973
  Beta virt. eigenvalues --    1.55105   2.03789   2.11672   2.22706   2.43357
  Beta virt. eigenvalues --    2.56469   3.08685   3.29676   3.30140   3.31265
  Beta virt. eigenvalues --    3.31555   3.50755   3.58687   3.64603   4.24008
  Beta virt. eigenvalues --    4.36411   5.24234   6.50735   6.50965   6.56908
  Beta virt. eigenvalues --    6.59335   6.73924   8.68984   8.78608   9.43808
  Beta virt. eigenvalues --   31.48165  42.10140  42.17097  42.64537  49.16236
  Beta virt. eigenvalues --  183.48785 978.74627
          Condensed to atoms (all electrons):
               1          2          3          4
     1  Cu  27.358303   0.024911  -0.008212  -0.008212
     2  O    0.024911   8.387102   0.221970   0.221970
     3  H   -0.008212   0.221970   0.187333  -0.012463
     4  H   -0.008212   0.221970  -0.012463   0.187333
          Atomic-Atomic Spin Densities.
               1          2          3          4
     1  Cu   0.782910  -0.055802  -0.000146  -0.000146
     2  O   -0.055802   0.338664  -0.000974  -0.000974
     3  H   -0.000146  -0.000974  -0.003226   0.000481
     4  H   -0.000146  -0.000974   0.000481  -0.003226
 Mulliken charges and spin densities:
               1          2
     1  Cu   1.633209   0.726815
     2  O   -0.855954   0.280915
     3  H    0.611372  -0.003865
     4  H    0.611372  -0.003865
 Sum of Mulliken charges =   2.00000   1.00000
 Mulliken charges and spin densities with hydrogens summed into heavy atoms:
               1          2
     1  Cu   1.633209   0.726815
     2  O    0.366791   0.273185
 Electronic spatial extent (au):  <R**2>=             84.6979
 Charge=              2.0000 electrons
 Dipole moment (field-independent basis, Debye):
    X=             -0.8008    Y=              1.8003    Z=              0.0000  Tot=              1.9703
 Quadrupole moment (field-independent basis, Debye-Ang):
   XX=            -14.0566   YY=             -1.0915   ZZ=            -10.3864
   XY=             -1.1643   XZ=              0.0000   YZ=              0.0000
 Traceless Quadrupole moment (field-independent basis, Debye-Ang):
   XX=             -5.5451   YY=              7.4200   ZZ=             -1.8749
   XY=             -1.1643   XZ=              0.0000   YZ=              0.0000
 Octapole moment (field-independent basis, Debye-Ang**2):
  XXX=             -0.3048  YYY=              8.0316  ZZZ=              0.0000  XYY=             -1.8735
  XXY=             -3.6897  XXZ=              0.0000  XZZ=             -0.5757  YZZ=              2.2570
  YYZ=              0.0000  XYZ=              0.0000
 Hexadecapole moment (field-independent basis, Debye-Ang**3):
 XXXX=             -7.8505 YYYY=            -17.9064 ZZZZ=             -6.7110 XXXY=              0.2324
 XXXZ=              0.0000 YYYX=             -2.5953 YYYZ=              0.0000 ZZZX=              0.0000
 ZZZY=              0.0000 XXYY=            -10.1690 XXZZ=             -2.7656 YYZZ=             -1.0583
 XXYZ=              0.0000 YYXZ=              0.0000 ZZXY=             -0.6964
 N-N= 1.128055448840D+02 E-N=-4.306305472361D+03  KE= 1.716192108170D+03
 Symmetry A'   KE= 1.490131593014D+03
 Symmetry A"   KE= 2.260605151553D+02
                          Isotropic Fermi Contact Couplings
        Atom                 a.u.       MegaHertz       Gauss      10(-4) cm-1
     1  Cu(63)             1.16717    1384.39559     493.98675     461.78466
     2  O(17)              0.05124     -31.06119     -11.08340     -10.36090
     3  H(1)              -0.00051      -2.27509      -0.81181      -0.75889
     4  H(1)              -0.00051      -2.27509      -0.81181      -0.75889
 --------------------------------------------------------
       Center         ----  Spin Dipole Couplings  ----
                      3XX-RR        3YY-RR        3ZZ-RR
 --------------------------------------------------------
     1   Atom       -0.690937      3.334109     -2.643173
     2   Atom        0.299053      0.152188     -0.451241
     3   Atom       -0.025098      0.012280      0.012818
     4   Atom       -0.025098      0.012280      0.012818
 --------------------------------------------------------
                        XY            XZ            YZ
 --------------------------------------------------------
     1   Atom       -1.616879      0.000000      0.000000
     2   Atom        0.634597      0.000000      0.000000
     3   Atom       -0.000900     -0.015373      0.034628
     4   Atom       -0.000900      0.015373     -0.034628
 --------------------------------------------------------


 ---------------------------------------------------------------------------------
              Anisotropic Spin Dipole Couplings in Principal Axis System
 ---------------------------------------------------------------------------------

       Atom             a.u.   MegaHertz   Gauss  10(-4) cm-1        Axes

              Baa    -2.6432  -374.225  -133.533  -124.828  0.0000  0.0000  1.0000
     1 Cu(63) Bbb    -1.2600  -178.392   -63.655   -59.505  0.9433  0.3320  0.0000
              Bcc     3.9032   552.617   197.187   184.333 -0.3320  0.9433  0.0000
 
              Baa    -0.4512    32.651    11.651    10.891  0.0000  0.0000  1.0000
     2 O(17)  Bbb    -0.4132    29.900    10.669     9.973 -0.6652  0.7466  0.0000
              Bcc     0.8645   -62.551   -22.320   -20.865  0.7466  0.6652  0.0000
 
              Baa    -0.0349   -18.595    -6.635    -6.203  0.7770 -0.3630  0.5143
     3 H(1)   Bbb    -0.0142    -7.556    -2.696    -2.520  0.6096  0.6376 -0.4710
              Bcc     0.0490    26.151     9.331     8.723 -0.1569  0.6795  0.7167
 
              Baa    -0.0349   -18.595    -6.635    -6.203  0.7770 -0.3630 -0.5143
     4 H(1)   Bbb    -0.0142    -7.556    -2.696    -2.520  0.6096  0.6376  0.4710
              Bcc     0.0490    26.151     9.331     8.723  0.1569 -0.6795  0.7167
 

 ---------------------------------------------------------------------------------

 1\1\GINC-HYPERION\Scan\UB3LYP\6-311G(d)\Cu1H2O1(2+,2)\JAKE\29-Jan-2016
 \0\\# opt=(modredundant,maxcycles=350) B3LYP/6-311G* scf=xqc\\cu2(h20)
 1\\2,2\Cu,-0.0431060646,1.3358541154,0.0000000005\O,-0.026638309,2.705
 0610883,0.\H,-0.1558574212,3.3156134039,0.7874809106\H,-0.1558574212,3
 .3156134032,-0.7874809112\\Version=EM64M-G09RevD.01\State=2-A'\HF=-171
 5.9969593,-1715.9955608,-1715.9941994,-1715.9928975,-1715.9917025,-171
 5.9906559,-1715.9897868,-1715.9891689,-1715.9888942,-1715.989004,-1715
 .9895805,-1715.9907237,-1715.9924999,-1715.994978,-1715.9982198,-1716.
 0022213,-1716.006888,-1716.0119822,-1716.0170656,-1716.0213195,-1716.0
 233069,-1716.0208071,-1716.0098033,-1715.9842602,-1715.9348431,-1715.8
 473529\S2=0.752555,0.752551,0.752544,0.75254,0.752542,0.752561,0.75262
 4,0.752724,0.752875,0.753131,0.753402,0.753732,0.754018,0.754211,0.754
 185,0.753921,0.753429,0.752792,0.752147,0.751585,0.751178,0.750928,0.7
 50807,0.750782,0.750825,0.750897\S2-1=0.,0.,0.,0.,0.,0.,0.,0.,0.,0.,0.
 ,0.,0.,0.,0.,0.,0.,0.,0.,0.,0.,0.,0.,0.,0.,0.\S2A=0.750004,0.750004,0.
 750004,0.750004,0.750004,0.750004,0.750004,0.750005,0.750005,0.750005,
 0.750005,0.750006,0.750006,0.750006,0.750005,0.750004,0.750003,0.75000
 2,0.750002,0.750001,0.750001,0.75,0.75,0.75,0.75,0.75\RMSD=1.618e-05,5
 .923e-09,2.971e-09,7.685e-09,9.967e-09,1.745e-09,3.712e-09,6.312e-09,2
 .122e-09,7.711e-09,1.752e-09,2.308e-09,4.185e-09,1.957e-09,4.130e-09,9
 .518e-10,3.814e-09,9.284e-09,8.638e-09,1.258e-09,1.695e-09,2.052e-09,9
 .485e-10,1.221e-09,5.656e-09,3.348e-10\PG=CS [SG(Cu1O1),X(H2)]\\@


 RESEARCH IS WHAT I AM DOING WHEN I DON'T KNOW WHAT I AM DOING.
     -- WERNER VON BRAUN
 Job cpu time:       0 days  0 hours 10 minutes  9.3 seconds.
 File lengths (MBytes):  RWF=      7 Int=      0 D2E=      0 Chk=      3 Scr=      1
 Normal termination of Gaussian 09 at Fri Jan 29 13:09:31 2016.
