I Entering Gaussian System, Link 0=g09
 Initial command:
 /opt/local/share/g09/l1.exe "./Gau-5184.inp" -scrdir="./"
 Entering Link 1 = /opt/local/share/g09/l1.exe PID=      5185.
  
 Copyright (c) 1988,1990,1992,1993,1995,1998,2003,2009,2013,
            Gaussian, Inc.  All Rights Reserved.
  
 This is part of the Gaussian(R) 09 program.  It is based on
 the Gaussian(R) 03 system (copyright 2003, Gaussian, Inc.),
 the Gaussian(R) 98 system (copyright 1998, Gaussian, Inc.),
 the Gaussian(R) 94 system (copyright 1995, Gaussian, Inc.),
 the Gaussian 92(TM) system (copyright 1992, Gaussian, Inc.),
 the Gaussian 90(TM) system (copyright 1990, Gaussian, Inc.),
 the Gaussian 88(TM) system (copyright 1988, Gaussian, Inc.),
 the Gaussian 86(TM) system (copyright 1986, Carnegie Mellon
 University), and the Gaussian 82(TM) system (copyright 1983,
 Carnegie Mellon University). Gaussian is a federally registered
 trademark of Gaussian, Inc.
  
 This software contains proprietary and confidential information,
 including trade secrets, belonging to Gaussian, Inc.
  
 This software is provided under written license and may be
 used, copied, transmitted, or stored only in accord with that
 written license.
  
 The following legend is applicable only to US Government
 contracts under FAR:
  
                    RESTRICTED RIGHTS LEGEND
  
 Use, reproduction and disclosure by the US Government is
 subject to restrictions as set forth in subparagraphs (a)
 and (c) of the Commercial Computer Software - Restricted
 Rights clause in FAR 52.227-19.
  
 Gaussian, Inc.
 340 Quinnipiac St., Bldg. 40, Wallingford CT 06492
  
  
 ---------------------------------------------------------------
 Warning -- This program may not be used in any manner that
 competes with the business of Gaussian, Inc. or will provide
 assistance to any competitor of Gaussian, Inc.  The licensee
 of this program is prohibited from giving any competitor of
 Gaussian, Inc. access to this program.  By using this program,
 the user acknowledges that Gaussian, Inc. is engaged in the
 business of creating and licensing software in the field of
 computational chemistry and represents and warrants to the
 licensee that it is not a competitor of Gaussian, Inc. and that
 it will not use this program in any manner prohibited above.
 ---------------------------------------------------------------
  

 Cite this work as:
 Gaussian 09, Revision D.01,
 M. J. Frisch, G. W. Trucks, H. B. Schlegel, G. E. Scuseria, 
 M. A. Robb, J. R. Cheeseman, G. Scalmani, V. Barone, B. Mennucci, 
 G. A. Petersson, H. Nakatsuji, M. Caricato, X. Li, H. P. Hratchian, 
 A. F. Izmaylov, J. Bloino, G. Zheng, J. L. Sonnenberg, M. Hada, 
 M. Ehara, K. Toyota, R. Fukuda, J. Hasegawa, M. Ishida, T. Nakajima, 
 Y. Honda, O. Kitao, H. Nakai, T. Vreven, J. A. Montgomery, Jr., 
 J. E. Peralta, F. Ogliaro, M. Bearpark, J. J. Heyd, E. Brothers, 
 K. N. Kudin, V. N. Staroverov, T. Keith, R. Kobayashi, J. Normand, 
 K. Raghavachari, A. Rendell, J. C. Burant, S. S. Iyengar, J. Tomasi, 
 M. Cossi, N. Rega, J. M. Millam, M. Klene, J. E. Knox, J. B. Cross, 
 V. Bakken, C. Adamo, J. Jaramillo, R. Gomperts, R. E. Stratmann, 
 O. Yazyev, A. J. Austin, R. Cammi, C. Pomelli, J. W. Ochterski, 
 R. L. Martin, K. Morokuma, V. G. Zakrzewski, G. A. Voth, 
 P. Salvador, J. J. Dannenberg, S. Dapprich, A. D. Daniels, 
 O. Farkas, J. B. Foresman, J. V. Ortiz, J. Cioslowski, 
 and D. J. Fox, Gaussian, Inc., Wallingford CT, 2013.
 
 ******************************************
 Gaussian 09:  EM64M-G09RevD.01 24-Apr-2013
                29-Jan-2016 
 ******************************************
 %mem=8GB
 %nprocshared=4
 Will use up to    4 processors via shared memory.
 %chk=pescuh2o2.chk
 --------------------------------------------------------
 # opt=(modredundant,maxcycles=350) B3LYP/6-311G* scf=xqc
 --------------------------------------------------------
 1/6=350,14=-1,18=120,19=15,26=3,38=1/1,3;
 2/9=110,12=2,17=6,18=5,40=1/2;
 3/5=4,6=6,7=1,11=2,16=1,25=1,30=1,71=1,74=-5/1,2,3;
 4//1;
 5/5=2,8=3,13=1,38=5/2,8;
 6/7=2,8=2,9=2,10=2,28=1/1;
 7//1,2,3,16;
 1/6=350,14=-1,18=20,19=15,26=3/3(2);
 2/9=110/2;
 99//99;
 2/9=110/2;
 3/5=4,6=6,7=1,11=2,16=1,25=1,30=1,71=1,74=-5/1,2,3;
 4/5=5,16=3,69=1/1;
 5/5=2,8=3,13=1,38=5/2,8;
 7//1,2,3,16;
 1/6=350,14=-1,18=20,19=15,26=3/3(-5);
 2/9=110/2;
 6/7=2,8=2,9=2,10=2,19=2,28=1/1;
 99/9=1/99;
 ---------
 cu2(h20)2
 ---------
 Symbolic Z-matrix:
 Charge =  2 Multiplicity = 2
 29                    0.32621   0.        0.00124 
 8                     0.01153   0.        3.8852 
 1                     0.69043   0.        4.58877 
 1                    -0.86322   0.        4.32175 
 8                     0.02582   0.       -1.88506 
 1                     0.71004   0.       -2.58346 
 1                    -0.84559   0.       -2.32822 
 
 Add virtual bond connecting atoms O2         and Cu1        Dist= 7.36D+00.
 The following ModRedundant input section has been read:
 B       1       2 S  25 -0.100                                                
 

 GradGradGradGradGradGradGradGradGradGradGradGradGradGradGradGradGradGrad
 Berny optimization.
 Initialization pass.
                           ----------------------------
                           !    Initial Parameters    !
                           ! (Angstroms and Degrees)  !
 --------------------------                            --------------------------
 ! Name  Definition              Value          Derivative Info.                !
 --------------------------------------------------------------------------------
 ! R1    R(1,2)                  3.8967         Scan                            !
 ! R2    R(1,5)                  1.9101         estimate D2E/DX2                !
 ! R3    R(2,3)                  0.9777         estimate D2E/DX2                !
 ! R4    R(2,4)                  0.9776         estimate D2E/DX2                !
 ! R5    R(5,6)                  0.9777         estimate D2E/DX2                !
 ! R6    R(5,7)                  0.9776         estimate D2E/DX2                !
 ! A1    A(1,2,3)              131.3898         estimate D2E/DX2                !
 ! A2    A(1,2,4)              121.1536         estimate D2E/DX2                !
 ! A3    A(3,2,4)              107.4565         estimate D2E/DX2                !
 ! A4    A(1,5,6)              126.5392         estimate D2E/DX2                !
 ! A5    A(1,5,7)              126.0043         estimate D2E/DX2                !
 ! A6    A(6,5,7)              107.4565         estimate D2E/DX2                !
 ! A7    L(2,1,5,7,-1)         166.3197         estimate D2E/DX2                !
 ! A8    L(2,1,5,7,-2)         180.0            estimate D2E/DX2                !
 ! D1    D(3,2,5,6)              0.0            estimate D2E/DX2                !
 ! D2    D(3,2,5,7)            180.0            estimate D2E/DX2                !
 ! D3    D(4,2,5,6)            180.0            estimate D2E/DX2                !
 ! D4    D(4,2,5,7)              0.0            estimate D2E/DX2                !
 --------------------------------------------------------------------------------
 Trust Radius=3.00D-01 FncErr=1.00D-07 GrdErr=1.00D-06
 Number of optimizations in scan=  26
 Number of steps in this run=    100 maximum allowed number of steps=    100.
 GradGradGradGradGradGradGradGradGradGradGradGradGradGradGradGradGradGrad

                          Input orientation:                          
 ---------------------------------------------------------------------
 Center     Atomic      Atomic             Coordinates (Angstroms)
 Number     Number       Type             X           Y           Z
 ---------------------------------------------------------------------
      1         29           0        0.326211    0.000000    0.001237
      2          8           0        0.011528    0.000000    3.885203
      3          1           0        0.690431    0.000000    4.588765
      4          1           0       -0.863216    0.000000    4.321746
      5          8           0        0.025821    0.000000   -1.885061
      6          1           0        0.710039    0.000000   -2.583456
      7          1           0       -0.845588    0.000000   -2.328224
 ---------------------------------------------------------------------
                    Distance matrix (angstroms):
                    1          2          3          4          5
     1  Cu   0.000000
     2  O    3.896693   0.000000
     3  H    4.601964   0.977706   0.000000
     4  H    4.481243   0.977623   1.576426   0.000000
     5  O    1.910067   5.770282   6.507851   6.270155   0.000000
     6  H    2.613037   6.506264   7.172248   7.082157   0.977706
     7  H    2.607585   6.272266   7.085485   6.649993   0.977623
                    6          7
     6  H    0.000000
     7  H    1.576426   0.000000
 Stoichiometry    CuH4O2(2+,2)
 Framework group  CS[SG(CuH4O2)]
 Deg. of freedom    11
 Full point group                 CS      NOp   2
 Largest Abelian subgroup         CS      NOp   2
 Largest concise Abelian subgroup C1      NOp   1
                         Standard orientation:                         
 ---------------------------------------------------------------------
 Center     Atomic      Atomic             Coordinates (Angstroms)
 Number     Number       Type             X           Y           Z
 ---------------------------------------------------------------------
      1         29           0        0.000000    0.428911    0.000000
      2          8           0       -0.908377   -3.360425    0.000000
      3          1           0       -1.772366   -3.818063    0.000000
      4          1           0       -0.212693   -4.047281    0.000000
      5          8           0        0.871927    2.128352    0.000000
      6          1           0        0.438734    3.004853    0.000000
      7          1           0        1.837928    2.278647    0.000000
 ---------------------------------------------------------------------
 Rotational constants (GHZ):    109.9711215      1.4972549      1.4771436
 Standard basis: 6-311G(d) (5D, 7F)
 There are    77 symmetry adapted cartesian basis functions of A'  symmetry.
 There are    25 symmetry adapted cartesian basis functions of A"  symmetry.
 There are    70 symmetry adapted basis functions of A'  symmetry.
 There are    24 symmetry adapted basis functions of A"  symmetry.
    94 basis functions,   165 primitive gaussians,   102 cartesian basis functions
    24 alpha electrons       23 beta electrons
       nuclear repulsion energy       141.1132969422 Hartrees.
 NAtoms=    7 NActive=    7 NUniq=    7 SFac= 1.00D+00 NAtFMM=   60 NAOKFM=F Big=F
 Integral buffers will be    131072 words long.
 Raffenetti 2 integral format.
 Two-electron integral symmetry is turned on.
 One-electron integrals computed using PRISM.
 NBasis=    94 RedAO= T EigKep=  1.33D-02  NBF=    70    24
 NBsUse=    94 1.00D-06 EigRej= -1.00D+00 NBFU=    70    24
 ExpMin= 4.08D-02 ExpMax= 3.37D+05 ExpMxC= 1.14D+04 IAcc=2 IRadAn=         4 AccDes= 0.00D+00
 Harris functional with IExCor=  402 and IRadAn=       4 diagonalized for initial guess.
 HarFok:  IExCor=  402 AccDes= 0.00D+00 IRadAn=         4 IDoV= 1 UseB2=F ITyADJ=14
 ICtDFT=  3500011 ScaDFX=  1.000000  1.000000  1.000000  1.000000
 FoFCou: FMM=F IPFlag=           0 FMFlag=      100000 FMFlg1=           0
         NFxFlg=           0 DoJE=T BraDBF=F KetDBF=T FulRan=T
         wScrn=  0.000000 ICntrl=     500 IOpCl=  0 I1Cent=   200000004 NGrid=           0
         NMat0=    1 NMatS0=      1 NMatT0=    0 NMatD0=    1 NMtDS0=    0 NMtDT0=    0
 Petite list used in FoFCou.
 Initial guess orbital symmetries:
 Alpha Orbitals:
       Occupied  (A') (A') (A') (A') (A") (A') (A') (A') (A') (A')
                 (A") (A') (A') (A') (A') (A') (A') (A") (A") (A')
                 (A') (A') (A") (A")
       Virtual   (A') (A') (A') (A') (A') (A') (A') (A') (A') (A')
                 (A') (A") (A") (A') (A') (A') (A') (A') (A") (A')
                 (A") (A') (A') (A") (A') (A') (A') (A') (A') (A')
                 (A") (A') (A") (A") (A") (A') (A') (A') (A') (A')
                 (A') (A") (A') (A") (A') (A") (A') (A') (A") (A")
                 (A') (A') (A') (A') (A") (A') (A") (A') (A') (A")
                 (A') (A') (A') (A") (A') (A') (A') (A') (A') (A')
 Beta  Orbitals:
       Occupied  (A') (A') (A') (A') (A") (A') (A') (A') (A') (A')
                 (A") (A') (A') (A') (A') (A') (A') (A") (A") (A')
                 (A') (A') (A")
       Virtual   (A") (A') (A') (A') (A') (A') (A') (A') (A') (A')
                 (A') (A') (A") (A") (A') (A') (A') (A') (A') (A")
                 (A') (A") (A') (A') (A") (A') (A') (A') (A') (A')
                 (A') (A") (A') (A") (A") (A") (A') (A') (A') (A')
                 (A') (A') (A") (A') (A") (A') (A") (A') (A') (A")
                 (A") (A') (A') (A') (A') (A") (A') (A") (A') (A')
                 (A") (A') (A') (A') (A") (A') (A') (A') (A') (A')
                 (A')
 The electronic state of the initial guess is 2-A".
 Initial guess <Sx>= 0.0000 <Sy>= 0.0000 <Sz>= 0.5000 <S**2>= 0.7500 S= 0.5000
 Keep R1 and R2 ints in memory in symmetry-blocked form, NReq=15923451.
 Requested convergence on RMS density matrix=1.00D-08 within  64 cycles.
 Requested convergence on MAX density matrix=1.00D-06.
 Requested convergence on             energy=1.00D-06.
 No special actions if energy rises.
 EnCoef did   100 forward-backward iterations
 EnCoef did    12 forward-backward iterations
 EnCoef did   100 forward-backward iterations
 EnCoef did     1 forward-backward iterations
 EnCoef did    42 forward-backward iterations
 EnCoef did    11 forward-backward iterations
 Rare condition: small coef for last iteration: -0.444D-15
 EnCoef did   100 forward-backward iterations
 EnCoef did   100 forward-backward iterations
 EnCoef did     6 forward-backward iterations
 SCF Done:  E(UB3LYP) =  -1792.54437987     A.U. after   26 cycles
            NFock= 26  Conv=0.22D-08     -V/T= 2.0007
 <Sx>= 0.0000 <Sy>= 0.0000 <Sz>= 0.5000 <S**2>= 0.7523 S= 0.5011
 <L.S>= 0.000000000000E+00
 Annihilation of the first spin contaminant:
 S**2 before annihilation     0.7523,   after     0.7500
 QCSCF skips out because SCF is already converged.

 **********************************************************************

            Population analysis using the SCF density.

 **********************************************************************

 Orbital symmetries:
 Alpha Orbitals:
       Occupied  (A') (A') (A") (A') (A') (A') (A') (A') (A') (A")
                 (A') (A') (A') (A') (A') (A') (A') (A") (A") (A')
                 (A") (A') (A") (A')
       Virtual   (A') (A') (A') (A') (A') (A') (A') (A') (A') (A')
                 (A') (A") (A") (A') (A') (A') (A') (A') (A") (A')
                 (A') (A") (A') (A") (A') (A') (A') (A') (A') (A')
                 (A") (A") (A') (A") (A") (A') (A') (A') (A') (A')
                 (A') (A") (A') (A") (A') (A") (A') (A') (A") (A")
                 (A') (A') (A') (A') (A') (A") (A") (A') (A') (A")
                 (A') (A') (A') (A") (A') (A') (A') (A') (A') (A')
 Beta  Orbitals:
       Occupied  (A') (A') (A") (A') (A') (A') (A') (A') (A') (A")
                 (A') (A') (A') (A') (A') (A') (A') (A") (A') (A")
                 (A') (A') (A")
       Virtual   (A") (A') (A') (A') (A') (A') (A') (A') (A') (A')
                 (A') (A') (A") (A") (A') (A') (A') (A') (A') (A")
                 (A') (A') (A") (A') (A") (A') (A') (A') (A') (A')
                 (A') (A") (A') (A") (A") (A") (A') (A') (A') (A')
                 (A') (A') (A") (A') (A") (A') (A") (A') (A') (A")
                 (A") (A') (A') (A') (A') (A') (A") (A") (A') (A')
                 (A") (A') (A') (A') (A") (A') (A') (A') (A') (A')
                 (A')
 The electronic state is 2-A".
 Alpha  occ. eigenvalues -- -323.44196 -39.23538 -34.46278 -34.46136 -34.44550
 Alpha  occ. eigenvalues --  -19.57522 -19.56048  -4.77160  -3.28007  -3.27925
 Alpha  occ. eigenvalues --   -3.24628  -1.44392  -1.43993  -0.95717  -0.94608
 Alpha  occ. eigenvalues --   -0.89090  -0.80583  -0.79530  -0.77013  -0.75011
 Alpha  occ. eigenvalues --   -0.74757  -0.74712  -0.73435  -0.72963
 Alpha virt. eigenvalues --   -0.49721  -0.30213  -0.29503  -0.22855  -0.21259
 Alpha virt. eigenvalues --   -0.18403  -0.03104   0.02524   0.05448   0.06566
 Alpha virt. eigenvalues --    0.28457   0.31761   0.34715   0.38716   0.43619
 Alpha virt. eigenvalues --    0.50515   0.72687   0.76288   0.82988   0.85684
 Alpha virt. eigenvalues --    0.99638   0.99715   1.01400   1.02183   1.14458
 Alpha virt. eigenvalues --    1.24134   1.64313   1.64438   1.67111   1.68637
 Alpha virt. eigenvalues --    2.31179   2.32517   2.32698   2.34184   2.36441
 Alpha virt. eigenvalues --    2.51023   2.68959   2.70104   2.76266   2.99084
 Alpha virt. eigenvalues --    3.01905   3.48521   3.48544   3.48877   3.50166
 Alpha virt. eigenvalues --    3.50199   3.51104   3.51468   4.27188   4.30676
 Alpha virt. eigenvalues --    4.40780   4.50758   4.53716   4.56360   6.71131
 Alpha virt. eigenvalues --    6.71157   6.71231   6.76748   6.83133   8.79275
 Alpha virt. eigenvalues --    8.84618   9.08111  31.49960  42.25617  42.29699
 Alpha virt. eigenvalues --   42.45324  49.26165  49.29220 183.56620 978.82120
  Beta  occ. eigenvalues -- -323.44196 -39.22405 -34.45049 -34.44893 -34.44267
  Beta  occ. eigenvalues --  -19.56137 -19.55848  -4.74827  -3.24660  -3.24593
  Beta  occ. eigenvalues --   -3.23870  -1.43534  -1.40905  -0.95574  -0.93591
  Beta  occ. eigenvalues --   -0.88844  -0.79092  -0.74864  -0.74085  -0.73572
  Beta  occ. eigenvalues --   -0.73540  -0.71845  -0.65355
  Beta virt. eigenvalues --   -0.62756  -0.49447  -0.30063  -0.29102  -0.22812
  Beta virt. eigenvalues --   -0.20960  -0.18284  -0.03092   0.02557   0.05623
  Beta virt. eigenvalues --    0.06956   0.28816   0.32464   0.38978   0.39480
  Beta virt. eigenvalues --    0.43736   0.51218   0.72955   0.78177   0.84314
  Beta virt. eigenvalues --    0.85938   1.00045   1.00195   1.01991   1.05065
  Beta virt. eigenvalues --    1.14864   1.24915   1.64263   1.64370   1.67367
  Beta virt. eigenvalues --    1.68802   2.33124   2.34448   2.35745   2.37069
  Beta virt. eigenvalues --    2.38674   2.51413   2.69725   2.74315   2.77256
  Beta virt. eigenvalues --    2.99177   3.02573   3.50341   3.50477   3.50838
  Beta virt. eigenvalues --    3.50871   3.51363   3.51674   3.52082   4.31497
  Beta virt. eigenvalues --    4.33291   4.41976   4.50948   4.54967   4.56533
  Beta virt. eigenvalues --    6.72065   6.72115   6.75807   6.77700   6.83933
  Beta virt. eigenvalues --    8.81313   8.85144   9.10131  31.51470  42.27214
  Beta virt. eigenvalues --   42.30137  42.46926  49.27555  49.29419 183.57188
  Beta virt. eigenvalues --  978.82231
          Condensed to atoms (all electrons):
               1          2          3          4          5          6
     1  Cu  27.617879   0.004081  -0.000309  -0.000342   0.094089  -0.004008
     2  O    0.004081   8.025540   0.242256   0.241255   0.000000   0.000000
     3  H   -0.000309   0.242256   0.257021  -0.018660   0.000000   0.000000
     4  H   -0.000342   0.241255  -0.018660   0.263508   0.000000   0.000000
     5  O    0.094089   0.000000   0.000000   0.000000   8.306947   0.249782
     6  H   -0.004008   0.000000   0.000000   0.000000   0.249782   0.228413
     7  H   -0.004044  -0.000001   0.000000   0.000000   0.249840  -0.019045
               7
     1  Cu  -0.004044
     2  O   -0.000001
     3  H    0.000000
     4  H    0.000000
     5  O    0.249840
     6  H   -0.019045
     7  H    0.230901
          Atomic-Atomic Spin Densities.
               1          2          3          4          5          6
     1  Cu   0.428974  -0.000293   0.000020   0.000023  -0.007526   0.000071
     2  O   -0.000293   0.561168  -0.006348  -0.006235   0.000000   0.000000
     3  H    0.000020  -0.006348  -0.010649   0.001094   0.000000   0.000000
     4  H    0.000023  -0.006235   0.001094  -0.010841   0.000000   0.000000
     5  O   -0.007526   0.000000   0.000000   0.000000   0.075932  -0.000777
     6  H    0.000071   0.000000   0.000000   0.000000  -0.000777  -0.001750
     7  H    0.000069   0.000000   0.000000   0.000000  -0.000772   0.000136
               7
     1  Cu   0.000069
     2  O    0.000000
     3  H    0.000000
     4  H    0.000000
     5  O   -0.000772
     6  H    0.000136
     7  H   -0.001759
 Mulliken charges and spin densities:
               1          2
     1  Cu   1.292654   0.421338
     2  O   -0.513131   0.548292
     3  H    0.519691  -0.015882
     4  H    0.514239  -0.015960
     5  O   -0.900659   0.066858
     6  H    0.544858  -0.002320
     7  H    0.542348  -0.002326
 Sum of Mulliken charges =   2.00000   1.00000
 Mulliken charges and spin densities with hydrogens summed into heavy atoms:
               1          2
     1  Cu   1.292654   0.421338
     2  O    0.520798   0.516450
     5  O    0.186548   0.062212
 Electronic spatial extent (au):  <R**2>=            688.2891
 Charge=              2.0000 electrons
 Dipole moment (field-independent basis, Debye):
    X=             -0.5849    Y=             -4.0271    Z=              0.0000  Tot=              4.0693
 Quadrupole moment (field-independent basis, Debye-Ang):
   XX=             -8.3804   YY=             47.6157   ZZ=            -21.0178
   XY=             18.2063   XZ=              0.0000   YZ=              0.0000
 Traceless Quadrupole moment (field-independent basis, Debye-Ang):
   XX=            -14.4529   YY=             41.5432   ZZ=            -27.0903
   XY=             18.2063   XZ=              0.0000   YZ=              0.0000
 Octapole moment (field-independent basis, Debye-Ang**2):
  XXX=              0.4348  YYY=           -135.5316  ZZZ=              0.0000  XYY=            -28.7839
  XXY=             -6.0829  XXZ=              0.0000  XZZ=             -0.7478  YZZ=              1.8957
  YYZ=              0.0000  XYZ=              0.0000
 Hexadecapole moment (field-independent basis, Debye-Ang**3):
 XXXX=            -25.0300 YYYY=            436.5373 ZZZZ=            -12.8969 XXXY=            -13.4194
 XXXZ=              0.0000 YYYX=            151.0157 YYYZ=              0.0000 ZZZX=              0.0000
 ZZZY=              0.0000 XXYY=             12.7785 XXZZ=            -15.3168 YYZZ=           -108.4227
 XXYZ=              0.0000 YYXZ=              0.0000 ZZXY=            -31.9902
 N-N= 1.411132969422D+02 E-N=-4.548142919509D+03  KE= 1.791350907438D+03
 Symmetry A'   KE= 1.566033924552D+03
 Symmetry A"   KE= 2.253169828866D+02
                          Isotropic Fermi Contact Couplings
        Atom                 a.u.       MegaHertz       Gauss      10(-4) cm-1
     1  Cu(63)            -0.13269    -157.39018     -56.16073     -52.49971
     2  O(17)              0.04308     -26.11748      -9.31937      -8.71185
     3  H(1)              -0.00834     -37.27684     -13.30130     -12.43421
     4  H(1)              -0.00835     -37.33214     -13.32104     -12.45266
     5  O(17)              0.01153      -6.98870      -2.49374      -2.33118
     6  H(1)              -0.00121      -5.41511      -1.93224      -1.80629
     7  H(1)              -0.00121      -5.41903      -1.93365      -1.80760
 --------------------------------------------------------
       Center         ----  Spin Dipole Couplings  ----
                      3XX-RR        3YY-RR        3ZZ-RR
 --------------------------------------------------------
     1   Atom       -1.356823      0.387079      0.969744
     2   Atom       -1.069272     -1.089359      2.158631
     3   Atom        0.059859     -0.031645     -0.028214
     4   Atom        0.016083      0.012210     -0.028293
     5   Atom       -0.158629     -0.142804      0.301433
     6   Atom       -0.007920      0.015828     -0.007908
     7   Atom        0.014641     -0.006680     -0.007961
 --------------------------------------------------------
                        XY            XZ            YZ
 --------------------------------------------------------
     1   Atom        1.201179      0.000000      0.000000
     2   Atom       -0.002938      0.000000      0.000000
     3   Atom        0.065547      0.000000      0.000000
     4   Atom       -0.079678      0.000000      0.000000
     5   Atom        0.010715      0.000000      0.000000
     6   Atom       -0.007402      0.000000      0.000000
     7   Atom        0.008666      0.000000      0.000000
 --------------------------------------------------------


 ---------------------------------------------------------------------------------
              Anisotropic Spin Dipole Couplings in Principal Axis System
 ---------------------------------------------------------------------------------

       Atom             a.u.   MegaHertz   Gauss  10(-4) cm-1        Axes

              Baa    -1.9692  -278.798   -99.482   -92.997  0.8909 -0.4542  0.0000
     1 Cu(63) Bbb     0.9697   137.298    48.991    45.798  0.0000  0.0000  1.0000
              Bcc     0.9994   141.500    50.491    47.199  0.4542  0.8909  0.0000
 
              Baa    -1.0898    78.856    28.138    26.303  0.1418  0.9899  0.0000
     2 O(17)  Bbb    -1.0689    77.341    27.597    25.798  0.9899 -0.1418  0.0000
              Bcc     2.1586  -156.197   -55.735   -52.102  0.0000  0.0000  1.0000
 
              Baa    -0.0658   -35.123   -12.533   -11.716 -0.4624  0.8867  0.0000
     3 H(1)   Bbb    -0.0282   -15.054    -5.372    -5.021  0.0000  0.0000  1.0000
              Bcc     0.0940    50.177    17.904    16.737  0.8867  0.4624  0.0000
 
              Baa    -0.0656   -34.977   -12.481   -11.667  0.6985  0.7156  0.0000
     4 H(1)   Bbb    -0.0283   -15.096    -5.387    -5.035  0.0000  0.0000  1.0000
              Bcc     0.0938    50.073    17.867    16.702  0.7156 -0.6985  0.0000
 
              Baa    -0.1640    11.870     4.235     3.959  0.8928 -0.4505  0.0000
     5 O(17)  Bbb    -0.1374     9.942     3.548     3.316  0.4505  0.8928  0.0000
              Bcc     0.3014   -21.811    -7.783    -7.276  0.0000  0.0000  1.0000
 
              Baa    -0.0100    -5.356    -1.911    -1.787  0.9614  0.2751  0.0000
     6 H(1)   Bbb    -0.0079    -4.219    -1.505    -1.407  0.0000  0.0000  1.0000
              Bcc     0.0179     9.575     3.417     3.194 -0.2751  0.9614  0.0000
 
              Baa    -0.0098    -5.206    -1.858    -1.737 -0.3347  0.9423  0.0000
     7 H(1)   Bbb    -0.0080    -4.247    -1.516    -1.417  0.0000  0.0000  1.0000
              Bcc     0.0177     9.454     3.373     3.153  0.9423  0.3347  0.0000
 

 ---------------------------------------------------------------------------------

 Calling FoFJK, ICntrl=      2127 FMM=F ISym2X=1 I1Cent= 0 IOpClX= 1 NMat=1 NMatS=1 NMatT=0.
 ***** Axes restored to original set *****
 -------------------------------------------------------------------
 Center     Atomic                   Forces (Hartrees/Bohr)
 Number     Number              X              Y              Z
 -------------------------------------------------------------------
      1       29           0.000205536    0.000000000   -0.007505857
      2        8          -0.000938706    0.000000000   -0.000669009
      3        1           0.002081959    0.000000000    0.002029960
      4        1          -0.001725951    0.000000000    0.002338575
      5        8          -0.001450389    0.000000000   -0.004177261
      6        1          -0.002483992    0.000000000    0.004756469
      7        1           0.004311544    0.000000000    0.003227123
 -------------------------------------------------------------------
 Cartesian Forces:  Max     0.007505857 RMS     0.002690044

 GradGradGradGradGradGradGradGradGradGradGradGradGradGradGradGradGradGrad
 Berny optimization.
 FormGI is forming the generalized inverse of G from B-inverse, IUseBI=4.
 Internal  Forces:  Max     0.005309371 RMS     0.002436090
 Search for a local minimum.
 Step number   1 out of a maximum of  100 on scan point     1 out of    26
 All quantities printed in internal units (Hartrees-Bohrs-Radians)
 Mixed Optimization -- RFO/linear search
 Second derivative matrix not updated -- first step.
 The second derivative matrix:
                          R1        R2        R3        R4        R5
           R1           0.00848
           R2           0.00000   0.17768
           R3           0.00000   0.00000   0.51833
           R4           0.00000   0.00000   0.00000   0.51849
           R5           0.00000   0.00000   0.00000   0.00000   0.51833
           R6           0.00000   0.00000   0.00000   0.00000   0.00000
           A1           0.00000   0.00000   0.00000   0.00000   0.00000
           A2           0.00000   0.00000   0.00000   0.00000   0.00000
           A3           0.00000   0.00000   0.00000   0.00000   0.00000
           A4           0.00000   0.00000   0.00000   0.00000   0.00000
           A5           0.00000   0.00000   0.00000   0.00000   0.00000
           A6           0.00000   0.00000   0.00000   0.00000   0.00000
           A7           0.00000   0.00000   0.00000   0.00000   0.00000
           A8           0.00000   0.00000   0.00000   0.00000   0.00000
           D1           0.00000   0.00000   0.00000   0.00000   0.00000
           D2           0.00000   0.00000   0.00000   0.00000   0.00000
           D3           0.00000   0.00000   0.00000   0.00000   0.00000
           D4           0.00000   0.00000   0.00000   0.00000   0.00000
                          R6        A1        A2        A3        A4
           R6           0.51849
           A1           0.00000   0.16000
           A2           0.00000   0.00000   0.16000
           A3           0.00000   0.00000   0.00000   0.16000
           A4           0.00000   0.00000   0.00000   0.00000   0.16000
           A5           0.00000   0.00000   0.00000   0.00000   0.00000
           A6           0.00000   0.00000   0.00000   0.00000   0.00000
           A7           0.00000   0.00000   0.00000   0.00000   0.00000
           A8           0.00000   0.00000   0.00000   0.00000   0.00000
           D1           0.00000   0.00000   0.00000   0.00000   0.00000
           D2           0.00000   0.00000   0.00000   0.00000   0.00000
           D3           0.00000   0.00000   0.00000   0.00000   0.00000
           D4           0.00000   0.00000   0.00000   0.00000   0.00000
                          A5        A6        A7        A8        D1
           A5           0.16000
           A6           0.00000   0.16000
           A7           0.00000   0.00000   0.03281
           A8           0.00000   0.00000   0.00000   0.03281
           D1           0.00000   0.00000   0.00000   0.00000   0.00230
           D2           0.00000   0.00000   0.00000   0.00000   0.00000
           D3           0.00000   0.00000   0.00000   0.00000   0.00000
           D4           0.00000   0.00000   0.00000   0.00000   0.00000
                          D2        D3        D4
           D2           0.00230
           D3           0.00000   0.00230
           D4           0.00000   0.00000   0.00230
 ITU=  0
     Eigenvalues ---    0.00230   0.00230   0.00230   0.03281   0.03281
     Eigenvalues ---    0.16000   0.16000   0.16000   0.16000   0.17768
     Eigenvalues ---    0.51833   0.51833   0.51849   0.518491000.00000
     Eigenvalues --- 1000.000001000.000001000.00000
 RFO step:  Lambda=-2.73982274D-04 EMin= 2.30000000D-03
 Linear search not attempted -- first point.
 Iteration  1 RMS(Cart)=  0.01436048 RMS(Int)=  0.00008973
 Iteration  2 RMS(Cart)=  0.00011868 RMS(Int)=  0.00000000
 Iteration  3 RMS(Cart)=  0.00000000 RMS(Int)=  0.00000000
 Iteration  1 RMS(Cart)=  0.00000000 RMS(Int)=  0.00000000
 ClnCor:  largest displacement from symmetrization is 3.88D-12 for atom     5.
 Variable       Old X    -DE/DX   Delta X   Delta X   Delta X     New X
                                 (Linear)    (Quad)   (Total)
    R1        7.36368   0.00374   0.00000   0.00000   0.00000   7.36368
    R2        3.60950  -0.00382   0.00000  -0.02147  -0.02147   3.58804
    R3        1.84760   0.00290   0.00000   0.00560   0.00560   1.85320
    R4        1.84744   0.00259   0.00000   0.00500   0.00500   1.85244
    R5        1.84760  -0.00513   0.00000  -0.00990  -0.00990   1.83770
    R6        1.84744  -0.00531   0.00000  -0.01023  -0.01023   1.83721
    A1        2.29319  -0.00092   0.00000  -0.00571  -0.00571   2.28747
    A2        2.11453   0.00168   0.00000   0.01046   0.01046   2.12499
    A3        1.87547  -0.00076   0.00000  -0.00474  -0.00474   1.87073
    A4        2.20853  -0.00135   0.00000  -0.00845  -0.00845   2.20008
    A5        2.19919  -0.00017   0.00000  -0.00107  -0.00107   2.19812
    A6        1.87547   0.00153   0.00000   0.00952   0.00952   1.88499
    A7        2.90283   0.00041   0.00000   0.01243   0.01243   2.91526
    A8        3.14159   0.00000   0.00000   0.00000   0.00000   3.14159
    D1        0.00000   0.00000   0.00000   0.00000   0.00000   0.00000
    D2        3.14159   0.00000   0.00000   0.00000   0.00000   3.14159
    D3        3.14159   0.00000   0.00000   0.00000   0.00000   3.14159
    D4        0.00000   0.00000   0.00000   0.00000   0.00000   0.00000
         Item               Value     Threshold  Converged?
 Maximum Force            0.005309     0.000450     NO 
 RMS     Force            0.002337     0.000300     NO 
 Maximum Displacement     0.034900     0.001800     NO 
 RMS     Displacement     0.014368     0.001200     NO 
 Predicted change in Energy=-1.371560D-04
 GradGradGradGradGradGradGradGradGradGradGradGradGradGradGradGradGradGrad

                          Input orientation:                          
 ---------------------------------------------------------------------
 Center     Atomic      Atomic             Coordinates (Angstroms)
 Number     Number       Type             X           Y           Z
 ---------------------------------------------------------------------
      1         29           0        0.307743    0.000000   -0.006049
      2          8           0        0.009151    0.000000    3.879187
      3          1           0        0.697033    0.000000    4.578136
      4          1           0       -0.861476    0.000000    4.329669
      5          8           0        0.024691    0.000000   -1.883539
      6          1           0        0.716772    0.000000   -2.566707
      7          1           0       -0.838688    0.000000   -2.330487
 ---------------------------------------------------------------------
                    Distance matrix (angstroms):
                    1          2          3          4          5
     1  Cu   0.000000
     2  O    3.896693   0.000000
     3  H    4.600684   0.980669   0.000000
     4  H    4.490603   0.980267   1.578191   0.000000
     5  O    1.898707   5.762747   6.496559   6.276085   0.000000
     6  H    2.593121   6.484619   7.144870   7.074664   0.972468
     7  H    2.591779   6.267287   7.077253   6.660195   0.972207
                    6          7
     6  H    0.000000
     7  H    1.573295   0.000000
 Stoichiometry    CuH4O2(2+,2)
 Framework group  CS[SG(CuH4O2)]
 Deg. of freedom    11
 Full point group                 CS      NOp   2
 Largest Abelian subgroup         CS      NOp   2
 Largest concise Abelian subgroup C1      NOp   1
                         Standard orientation:                         
 ---------------------------------------------------------------------
 Center     Atomic      Atomic             Coordinates (Angstroms)
 Number     Number       Type             X           Y           Z
 ---------------------------------------------------------------------
      1         29           0        0.000000    0.429035    0.000000
      2          8           0       -0.854932   -3.372715    0.000000
      3          1           0       -1.717668   -3.838975    0.000000
      4          1           0       -0.154875   -4.058897    0.000000
      5          8           0        0.821654    2.140751    0.000000
      6          1           0        0.360576    2.996965    0.000000
      7          1           0        1.778192    2.314599    0.000000
 ---------------------------------------------------------------------
 Rotational constants (GHZ):    115.8197269      1.4998317      1.4806576
 Standard basis: 6-311G(d) (5D, 7F)
 There are    77 symmetry adapted cartesian basis functions of A'  symmetry.
 There are    25 symmetry adapted cartesian basis functions of A"  symmetry.
 There are    70 symmetry adapted basis functions of A'  symmetry.
 There are    24 symmetry adapted basis functions of A"  symmetry.
    94 basis functions,   165 primitive gaussians,   102 cartesian basis functions
    24 alpha electrons       23 beta electrons
       nuclear repulsion energy       141.6068159549 Hartrees.
 NAtoms=    7 NActive=    7 NUniq=    7 SFac= 1.00D+00 NAtFMM=   60 NAOKFM=F Big=F
 Integral buffers will be    131072 words long.
 Raffenetti 2 integral format.
 Two-electron integral symmetry is turned on.
 One-electron integrals computed using PRISM.
 NBasis=    94 RedAO= T EigKep=  1.33D-02  NBF=    70    24
 NBsUse=    94 1.00D-06 EigRej= -1.00D+00 NBFU=    70    24
 Initial guess from the checkpoint file:  "pescuh2o2.chk"
 B after Tr=     0.000000    0.000000    0.000000
         Rot=    0.999963    0.000000    0.000000   -0.008621 Ang=  -0.99 deg.
 Initial guess orbital symmetries:
 Alpha Orbitals:
       Occupied  (A') (A') (A") (A') (A') (A') (A') (A') (A') (A")
                 (A') (A') (A') (A') (A') (A') (A') (A") (A") (A')
                 (A") (A') (A") (A')
       Virtual   (A') (A') (A') (A') (A') (A') (A') (A') (A') (A')
                 (A') (A') (A') (A') (A') (A') (A') (A') (A') (A')
                 (A') (A') (A') (A') (A') (A') (A') (A') (A') (A')
                 (A') (A') (A') (A') (A') (A') (A') (A') (A') (A')
                 (A') (A') (A') (A') (A') (A') (A') (A') (A') (A')
                 (A') (A') (A") (A") (A") (A") (A") (A") (A") (A")
                 (A") (A") (A") (A") (A") (A") (A") (A") (A") (A")
 Beta  Orbitals:
       Occupied  (A') (A') (A") (A') (A') (A') (A') (A') (A') (A")
                 (A') (A') (A') (A') (A') (A') (A') (A") (A') (A")
                 (A') (A') (A")
       Virtual   (A') (A') (A') (A') (A') (A') (A') (A') (A') (A')
                 (A') (A') (A') (A') (A') (A') (A') (A') (A') (A')
                 (A') (A') (A') (A') (A') (A') (A') (A') (A') (A')
                 (A') (A') (A') (A') (A') (A') (A') (A') (A') (A')
                 (A') (A') (A') (A') (A') (A') (A') (A') (A') (A')
                 (A') (A') (A") (A") (A") (A") (A") (A") (A") (A")
                 (A") (A") (A") (A") (A") (A") (A") (A") (A") (A")
                 (A")
 Initial guess <Sx>= 0.0000 <Sy>= 0.0000 <Sz>= 0.5000 <S**2>= 0.7523 S= 0.5011
 ExpMin= 4.08D-02 ExpMax= 3.37D+05 ExpMxC= 1.14D+04 IAcc=2 IRadAn=         4 AccDes= 0.00D+00
 Harris functional with IExCor=  402 and IRadAn=       4 diagonalized for initial guess.
 HarFok:  IExCor=  402 AccDes= 0.00D+00 IRadAn=         4 IDoV= 1 UseB2=F ITyADJ=14
 ICtDFT=  3500011 ScaDFX=  1.000000  1.000000  1.000000  1.000000
 FoFCou: FMM=F IPFlag=           0 FMFlag=      100000 FMFlg1=           0
         NFxFlg=           0 DoJE=T BraDBF=F KetDBF=T FulRan=T
         wScrn=  0.000000 ICntrl=     500 IOpCl=  0 I1Cent=   200000004 NGrid=           0
         NMat0=    1 NMatS0=      1 NMatT0=    0 NMatD0=    1 NMtDS0=    0 NMtDT0=    0
 Petite list used in FoFCou.
 Keep R1 and R2 ints in memory in symmetry-blocked form, NReq=15923451.
 Requested convergence on RMS density matrix=1.00D-08 within  64 cycles.
 Requested convergence on MAX density matrix=1.00D-06.
 Requested convergence on             energy=1.00D-06.
 No special actions if energy rises.
 EnCoef did     4 forward-backward iterations
 EnCoef did     6 forward-backward iterations
 EnCoef did     5 forward-backward iterations
 EnCoef did     6 forward-backward iterations
 SCF Done:  E(UB3LYP) =  -1792.54454104     A.U. after   14 cycles
            NFock= 14  Conv=0.46D-08     -V/T= 2.0007
 <Sx>= 0.0000 <Sy>= 0.0000 <Sz>= 0.5000 <S**2>= 0.7523 S= 0.5011
 <L.S>= 0.000000000000E+00
 Annihilation of the first spin contaminant:
 S**2 before annihilation     0.7523,   after     0.7500
 QCSCF skips out because SCF is already converged.
 Calling FoFJK, ICntrl=      2127 FMM=F ISym2X=1 I1Cent= 0 IOpClX= 1 NMat=1 NMatS=1 NMatT=0.
 ***** Axes restored to original set *****
 -------------------------------------------------------------------
 Center     Atomic                   Forces (Hartrees/Bohr)
 Number     Number              X              Y              Z
 -------------------------------------------------------------------
      1       29           0.000665061    0.000000000   -0.004824952
      2        8          -0.001133406    0.000000000    0.002650676
      3        1           0.000514770    0.000000000    0.000044247
      4        1           0.000079255    0.000000000    0.001016169
      5        8          -0.000511414    0.000000000   -0.000029864
      6        1           0.000153243    0.000000000    0.000730313
      7        1           0.000232491    0.000000000    0.000413412
 -------------------------------------------------------------------
 Cartesian Forces:  Max     0.004824952 RMS     0.001279569

 GradGradGradGradGradGradGradGradGradGradGradGradGradGradGradGradGradGrad
 Berny optimization.
 Using GEDIIS/GDIIS optimizer.
 FormGI is forming the generalized inverse of G from B-inverse, IUseBI=4.
 Internal  Forces:  Max     0.003745585 RMS     0.001038859
 Search for a local minimum.
 Step number   2 out of a maximum of  100 on scan point     1 out of    26
 All quantities printed in internal units (Hartrees-Bohrs-Radians)
 Mixed Optimization -- En-DIIS/RFO-DIIS
 Update second derivatives using D2CorX and points    1    2
 DE= -1.61D-04 DEPred=-1.37D-04 R= 1.18D+00
 TightC=F SS=  1.41D+00  RLast= 3.47D-02 DXNew= 5.0454D-01 1.0401D-01
 Trust test= 1.18D+00 RLast= 3.47D-02 DXMaxT set to 3.00D-01
 The second derivative matrix:
                          R1        R2        R3        R4        R5
           R1           0.00848
           R2           0.00013   0.16040
           R3          -0.00012   0.00724   0.51828
           R4          -0.00011   0.00748  -0.00098   0.51681
           R5           0.00023  -0.00915  -0.00330  -0.00119   0.53051
           R6           0.00024  -0.00958  -0.00331  -0.00114   0.01241
           A1           0.00000  -0.01331   0.01022   0.00911  -0.01812
           A2          -0.00002   0.01883  -0.01358  -0.01226   0.02356
           A3           0.00002  -0.00552   0.00337   0.00315  -0.00544
           A4           0.00003  -0.00948   0.00568   0.00533  -0.00908
           A5           0.00001   0.00113  -0.00144  -0.00119   0.00290
           A6          -0.00005   0.00835  -0.00424  -0.00415   0.00618
           A7          -0.00002  -0.00077   0.00164   0.00129  -0.00356
           A8           0.00000   0.00000   0.00000   0.00000   0.00000
           D1           0.00000   0.00000   0.00000   0.00000   0.00000
           D2           0.00000   0.00000   0.00000   0.00000   0.00000
           D3           0.00000   0.00000   0.00000   0.00000   0.00000
           D4           0.00000   0.00000   0.00000   0.00000   0.00000
                          R6        A1        A2        A3        A4
           R6           0.53112
           A1          -0.01874   0.15695
           A2           0.02438   0.00566   0.15033
           A3          -0.00564  -0.00261   0.00401   0.15861
           A4          -0.00942  -0.00466   0.00709  -0.00243   0.15576
           A5           0.00299  -0.00063   0.00061   0.00002   0.00007
           A6           0.00643   0.00529  -0.00770   0.00241   0.00417
           A7          -0.00367   0.00146  -0.00169   0.00022   0.00033
           A8           0.00000   0.00000   0.00000   0.00000   0.00000
           D1           0.00000   0.00000   0.00000   0.00000   0.00000
           D2           0.00000   0.00000   0.00000   0.00000   0.00000
           D3           0.00000   0.00000   0.00000   0.00000   0.00000
           D4           0.00000   0.00000   0.00000   0.00000   0.00000
                          A5        A6        A7        A8        D1
           A5           0.16024
           A6          -0.00031   0.15614
           A7          -0.00038   0.00004   0.03336
           A8           0.00000   0.00000   0.00000   0.03281
           D1           0.00000   0.00000   0.00000   0.00000   0.00230
           D2           0.00000   0.00000   0.00000   0.00000   0.00000
           D3           0.00000   0.00000   0.00000   0.00000   0.00000
           D4           0.00000   0.00000   0.00000   0.00000   0.00000
                          D2        D3        D4
           D2           0.00230
           D3           0.00000   0.00230
           D4           0.00000   0.00000   0.00230
 ITU=  1  0
 Use linear search instead of GDIIS.
     Eigenvalues ---    0.00230   0.00230   0.00230   0.03281   0.03327
     Eigenvalues ---    0.11203   0.16000   0.16000   0.16138   0.17774
     Eigenvalues ---    0.51656   0.51839   0.51841   0.550751000.00000
     Eigenvalues --- 1000.000001000.000001000.00000
 RFO step:  Lambda=-3.92288879D-05 EMin= 2.30000000D-03
 Quartic linear search produced a step of  0.49879.
 Iteration  1 RMS(Cart)=  0.01330605 RMS(Int)=  0.00009984
 Iteration  2 RMS(Cart)=  0.00011325 RMS(Int)=  0.00000000
 Iteration  3 RMS(Cart)=  0.00000000 RMS(Int)=  0.00000000
 Iteration  1 RMS(Cart)=  0.00000000 RMS(Int)=  0.00000000
 ClnCor:  largest displacement from symmetrization is 1.48D-11 for atom     2.
 Variable       Old X    -DE/DX   Delta X   Delta X   Delta X     New X
                                 (Linear)    (Quad)   (Total)
    R1        7.36368   0.00375   0.00000   0.00000   0.00000   7.36368
    R2        3.58804  -0.00109  -0.01071  -0.00451  -0.01521   3.57282
    R3        1.85320   0.00038   0.00279  -0.00077   0.00203   1.85522
    R4        1.85244   0.00041   0.00249  -0.00046   0.00203   1.85447
    R5        1.83770  -0.00039  -0.00494   0.00216  -0.00278   1.83492
    R6        1.83721  -0.00041  -0.00510   0.00221  -0.00290   1.83431
    A1        2.28747  -0.00096  -0.00285  -0.00784  -0.01069   2.27678
    A2        2.12499   0.00133   0.00522   0.01041   0.01562   2.14061
    A3        1.87073  -0.00038  -0.00237  -0.00257  -0.00494   1.86579
    A4        2.20008  -0.00064  -0.00421  -0.00433  -0.00854   2.19154
    A5        2.19812   0.00010  -0.00054   0.00111   0.00058   2.19869
    A6        1.88499   0.00055   0.00475   0.00322   0.00797   1.89295
    A7        2.91526  -0.00008   0.00620   0.00313   0.00933   2.92459
    A8        3.14159   0.00000   0.00000   0.00000   0.00000   3.14159
    D1        0.00000   0.00000   0.00000   0.00000   0.00000   0.00000
    D2        3.14159   0.00000   0.00000   0.00000   0.00000   3.14159
    D3        3.14159   0.00000   0.00000   0.00000   0.00000   3.14159
    D4        0.00000   0.00000   0.00000   0.00000   0.00000   0.00000
         Item               Value     Threshold  Converged?
 Maximum Force            0.001334     0.000450     NO 
 RMS     Force            0.000563     0.000300     NO 
 Maximum Displacement     0.027853     0.001800     NO 
 RMS     Displacement     0.013311     0.001200     NO 
 Predicted change in Energy=-1.718280D-05
 GradGradGradGradGradGradGradGradGradGradGradGradGradGradGradGradGradGrad

                          Input orientation:                          
 ---------------------------------------------------------------------
 Center     Atomic      Atomic             Coordinates (Angstroms)
 Number     Number       Type             X           Y           Z
 ---------------------------------------------------------------------
      1         29           0        0.293003    0.000000   -0.010991
      2          8           0        0.004610    0.000000    3.875016
      3          1           0        0.702498    0.000000    4.565499
      4          1           0       -0.858598    0.000000    4.341819
      5          8           0        0.023700    0.000000   -1.882368
      6          1           0        0.725057    0.000000   -2.553886
      7          1           0       -0.835044    0.000000   -2.334880
 ---------------------------------------------------------------------
                    Distance matrix (angstroms):
                    1          2          3          4          5
     1  Cu   0.000000
     2  O    3.896693   0.000000
     3  H    4.594774   0.981741   0.000000
     4  H    4.502570   0.981342   1.577039   0.000000
     5  O    1.890655   5.757416   6.483499   6.286410   0.000000
     6  H    2.579338   6.469144   7.119421   7.075218   0.970998
     7  H    2.583205   6.266404   7.069601   6.676740   0.970674
                    6          7
     6  H    0.000000
     7  H    1.575398   0.000000
 Stoichiometry    CuH4O2(2+,2)
 Framework group  CS[SG(CuH4O2)]
 Deg. of freedom    11
 Full point group                 CS      NOp   2
 Largest Abelian subgroup         CS      NOp   2
 Largest concise Abelian subgroup C1      NOp   1
                         Standard orientation:                         
 ---------------------------------------------------------------------
 Center     Atomic      Atomic             Coordinates (Angstroms)
 Number     Number       Type             X           Y           Z
 ---------------------------------------------------------------------
      1         29           0        0.000000    0.429067    0.000000
      2          8           0       -0.813655   -3.381731    0.000000
      3          1           0       -1.677261   -3.848636    0.000000
      4          1           0       -0.116122   -4.072005    0.000000
      5          8           0        0.783615    2.149685    0.000000
      6          1           0        0.298874    2.991031    0.000000
      7          1           0        1.734836    2.343041    0.000000
 ---------------------------------------------------------------------
 Rotational constants (GHZ):    120.2744924      1.5015750      1.4830596
 Standard basis: 6-311G(d) (5D, 7F)
 There are    77 symmetry adapted cartesian basis functions of A'  symmetry.
 There are    25 symmetry adapted cartesian basis functions of A"  symmetry.
 There are    70 symmetry adapted basis functions of A'  symmetry.
 There are    24 symmetry adapted basis functions of A"  symmetry.
    94 basis functions,   165 primitive gaussians,   102 cartesian basis functions
    24 alpha electrons       23 beta electrons
       nuclear repulsion energy       141.9399174579 Hartrees.
 NAtoms=    7 NActive=    7 NUniq=    7 SFac= 1.00D+00 NAtFMM=   60 NAOKFM=F Big=F
 Integral buffers will be    131072 words long.
 Raffenetti 2 integral format.
 Two-electron integral symmetry is turned on.
 One-electron integrals computed using PRISM.
 NBasis=    94 RedAO= T EigKep=  1.33D-02  NBF=    70    24
 NBsUse=    94 1.00D-06 EigRej= -1.00D+00 NBFU=    70    24
 Initial guess from the checkpoint file:  "pescuh2o2.chk"
 B after Tr=     0.000000    0.000000    0.000000
         Rot=    0.999979    0.000000    0.000000   -0.006509 Ang=  -0.75 deg.
 Initial guess orbital symmetries:
 Alpha Orbitals:
       Occupied  (A') (A') (A") (A') (A') (A') (A') (A') (A') (A")
                 (A') (A') (A') (A') (A') (A') (A') (A") (A") (A')
                 (A") (A') (A") (A')
       Virtual   (A') (A') (A') (A') (A') (A') (A') (A') (A') (A')
                 (A') (A') (A') (A') (A') (A') (A') (A') (A') (A')
                 (A') (A') (A') (A') (A') (A') (A') (A') (A') (A')
                 (A') (A') (A') (A') (A') (A') (A') (A') (A') (A')
                 (A') (A') (A') (A') (A') (A') (A') (A') (A') (A')
                 (A') (A') (A") (A") (A") (A") (A") (A") (A") (A")
                 (A") (A") (A") (A") (A") (A") (A") (A") (A") (A")
 Beta  Orbitals:
       Occupied  (A') (A') (A") (A') (A') (A') (A') (A') (A') (A")
                 (A') (A') (A') (A') (A') (A') (A') (A") (A') (A")
                 (A') (A') (A")
       Virtual   (A') (A') (A') (A') (A') (A') (A') (A') (A') (A')
                 (A') (A') (A') (A') (A') (A') (A') (A') (A') (A')
                 (A') (A') (A') (A') (A') (A') (A') (A') (A') (A')
                 (A') (A') (A') (A') (A') (A') (A') (A') (A') (A')
                 (A') (A') (A') (A') (A') (A') (A') (A') (A') (A')
                 (A') (A') (A") (A") (A") (A") (A") (A") (A") (A")
                 (A") (A") (A") (A") (A") (A") (A") (A") (A") (A")
                 (A")
 Initial guess <Sx>= 0.0000 <Sy>= 0.0000 <Sz>= 0.5000 <S**2>= 0.7523 S= 0.5011
 ExpMin= 4.08D-02 ExpMax= 3.37D+05 ExpMxC= 1.14D+04 IAcc=2 IRadAn=         4 AccDes= 0.00D+00
 Harris functional with IExCor=  402 and IRadAn=       4 diagonalized for initial guess.
 HarFok:  IExCor=  402 AccDes= 0.00D+00 IRadAn=         4 IDoV= 1 UseB2=F ITyADJ=14
 ICtDFT=  3500011 ScaDFX=  1.000000  1.000000  1.000000  1.000000
 FoFCou: FMM=F IPFlag=           0 FMFlag=      100000 FMFlg1=           0
         NFxFlg=           0 DoJE=T BraDBF=F KetDBF=T FulRan=T
         wScrn=  0.000000 ICntrl=     500 IOpCl=  0 I1Cent=   200000004 NGrid=           0
         NMat0=    1 NMatS0=      1 NMatT0=    0 NMatD0=    1 NMtDS0=    0 NMtDT0=    0
 Petite list used in FoFCou.
 Keep R1 and R2 ints in memory in symmetry-blocked form, NReq=15923451.
 Requested convergence on RMS density matrix=1.00D-08 within  64 cycles.
 Requested convergence on MAX density matrix=1.00D-06.
 Requested convergence on             energy=1.00D-06.
 No special actions if energy rises.
 SCF Done:  E(UB3LYP) =  -1792.54455533     A.U. after   14 cycles
            NFock= 14  Conv=0.48D-08     -V/T= 2.0007
 <Sx>= 0.0000 <Sy>= 0.0000 <Sz>= 0.5000 <S**2>= 0.7523 S= 0.5011
 <L.S>= 0.000000000000E+00
 Annihilation of the first spin contaminant:
 S**2 before annihilation     0.7523,   after     0.7500
 QCSCF skips out because SCF is already converged.
 Calling FoFJK, ICntrl=      2127 FMM=F ISym2X=1 I1Cent= 0 IOpClX= 1 NMat=1 NMatS=1 NMatT=0.
 ***** Axes restored to original set *****
 -------------------------------------------------------------------
 Center     Atomic                   Forces (Hartrees/Bohr)
 Number     Number              X              Y              Z
 -------------------------------------------------------------------
      1       29           0.000849327    0.000000000   -0.002844809
      2        8          -0.001159242    0.000000000    0.004304793
      3        1           0.000131855    0.000000000   -0.000776948
      4        1           0.000547813    0.000000000    0.000177524
      5        8          -0.000094120    0.000000000    0.000786684
      6        1           0.000422430    0.000000000   -0.000864173
      7        1          -0.000698063    0.000000000   -0.000783071
 -------------------------------------------------------------------
 Cartesian Forces:  Max     0.004304793 RMS     0.001240113

 GradGradGradGradGradGradGradGradGradGradGradGradGradGradGradGradGradGrad
 Berny optimization.
 Using GEDIIS/GDIIS optimizer.
 FormGI is forming the generalized inverse of G from B-inverse, IUseBI=4.
 Internal  Forces:  Max     0.003736485 RMS     0.001029813
 Search for a local minimum.
 Step number   3 out of a maximum of  100 on scan point     1 out of    26
 All quantities printed in internal units (Hartrees-Bohrs-Radians)
 Mixed Optimization -- En-DIIS/RFO-DIIS
 Swapping is turned off.
 Update second derivatives using D2CorX and points    1    2    3
 DE= -1.43D-05 DEPred=-1.72D-05 R= 8.32D-01
 TightC=F SS=  1.41D+00  RLast= 2.94D-02 DXNew= 5.0454D-01 8.8097D-02
 Trust test= 8.32D-01 RLast= 2.94D-02 DXMaxT set to 3.00D-01
 The second derivative matrix:
                          R1        R2        R3        R4        R5
           R1           0.00848
           R2          -0.00025   0.18723
           R3           0.00007  -0.01094   0.52976
           R4           0.00007  -0.00768   0.00879   0.52507
           R5          -0.00009   0.02363  -0.02356  -0.01853   0.56604
           R6          -0.00010   0.02453  -0.02438  -0.01918   0.04936
           A1          -0.00003  -0.04026   0.02304   0.02108  -0.03847
           A2           0.00010   0.04089  -0.02280  -0.02129   0.03724
           A3          -0.00007  -0.00063  -0.00025   0.00021   0.00122
           A4          -0.00011  -0.00444   0.00127   0.00189  -0.00064
           A5          -0.00002   0.00905  -0.00572  -0.00501   0.01006
           A6           0.00013  -0.00461   0.00445   0.00312  -0.00942
           A7           0.00004  -0.00417   0.00412   0.00331  -0.00812
           A8           0.00000   0.00000   0.00000   0.00000   0.00000
           D1           0.00000   0.00000   0.00000   0.00000   0.00000
           D2           0.00000   0.00000   0.00000   0.00000   0.00000
           D3           0.00000   0.00000   0.00000   0.00000   0.00000
           D4           0.00000   0.00000   0.00000   0.00000   0.00000
                          R6        A1        A2        A3        A4
           R6           0.56956
           A1          -0.03988   0.14853
           A2           0.03859   0.02091   0.12904
           A3           0.00129  -0.00944   0.01005   0.15940
           A4          -0.00064  -0.01613   0.01798  -0.00186   0.15556
           A5           0.01044  -0.00148  -0.00037   0.00185   0.00284
           A6          -0.00980   0.01761  -0.01761   0.00001   0.00160
           A7          -0.00841   0.00601  -0.00567  -0.00034  -0.00010
           A8           0.00000   0.00000   0.00000   0.00000   0.00000
           D1           0.00000   0.00000   0.00000   0.00000   0.00000
           D2           0.00000   0.00000   0.00000   0.00000   0.00000
           D3           0.00000   0.00000   0.00000   0.00000   0.00000
           D4           0.00000   0.00000   0.00000   0.00000   0.00000
                          A5        A6        A7        A8        D1
           A5           0.16115
           A6          -0.00400   0.16239
           A7          -0.00161   0.00171   0.03376
           A8           0.00000   0.00000   0.00000   0.03281
           D1           0.00000   0.00000   0.00000   0.00000   0.00230
           D2           0.00000   0.00000   0.00000   0.00000   0.00000
           D3           0.00000   0.00000   0.00000   0.00000   0.00000
           D4           0.00000   0.00000   0.00000   0.00000   0.00000
                          D2        D3        D4
           D2           0.00230
           D3           0.00000   0.00230
           D4           0.00000   0.00000   0.00230
 ITU=  1  1  0
     Eigenvalues ---    0.00230   0.00230   0.00230   0.03281   0.03281
     Eigenvalues ---    0.06569   0.16000   0.16004   0.16451   0.21295
     Eigenvalues ---    0.51796   0.51838   0.51841   0.656741000.00000
     Eigenvalues --- 1000.000001000.000001000.00000
 En-DIIS/RFO-DIIS IScMMF=        0 using points:     3    2
 RFO step:  Lambda=-9.29854114D-06.
 DidBck=F Rises=F RFO-DIIS coefs:    0.92619    0.07381
 Iteration  1 RMS(Cart)=  0.00558050 RMS(Int)=  0.00001605
 Iteration  2 RMS(Cart)=  0.00002954 RMS(Int)=  0.00000000
 Iteration  3 RMS(Cart)=  0.00000000 RMS(Int)=  0.00000000
 Iteration  1 RMS(Cart)=  0.00000000 RMS(Int)=  0.00000000
 ClnCor:  largest displacement from symmetrization is 2.16D-12 for atom     7.
 Variable       Old X    -DE/DX   Delta X   Delta X   Delta X     New X
                                 (Linear)    (Quad)   (Total)
    R1        7.36368   0.00374   0.00000   0.00000   0.00000   7.36368
    R2        3.57282   0.00089   0.00112   0.00036   0.00149   3.57431
    R3        1.85522  -0.00047  -0.00015  -0.00001  -0.00016   1.85506
    R4        1.85447  -0.00037  -0.00015   0.00011  -0.00004   1.85443
    R5        1.83492   0.00092   0.00021   0.00027   0.00047   1.83539
    R6        1.83431   0.00096   0.00021   0.00028   0.00050   1.83480
    A1        2.27678  -0.00100   0.00079  -0.00736  -0.00657   2.27021
    A2        2.14061   0.00087  -0.00115   0.00771   0.00656   2.14717
    A3        1.86579   0.00014   0.00036  -0.00035   0.00001   1.86581
    A4        2.19154   0.00013   0.00063  -0.00119  -0.00056   2.19098
    A5        2.19869   0.00029  -0.00004   0.00155   0.00151   2.20020
    A6        1.89295  -0.00042  -0.00059  -0.00036  -0.00095   1.89201
    A7        2.92459  -0.00038  -0.00069  -0.00780  -0.00849   2.91610
    A8        3.14159   0.00000   0.00000   0.00000   0.00000   3.14159
    D1        0.00000   0.00000   0.00000   0.00000   0.00000   0.00000
    D2        3.14159   0.00000   0.00000   0.00000   0.00000   3.14159
    D3        3.14159   0.00000   0.00000   0.00000   0.00000   3.14159
    D4        0.00000   0.00000   0.00000   0.00000   0.00000   0.00000
         Item               Value     Threshold  Converged?
 Maximum Force            0.001002     0.000450     NO 
 RMS     Force            0.000549     0.000300     NO 
 Maximum Displacement     0.018620     0.001800     NO 
 RMS     Displacement     0.005586     0.001200     NO 
 Predicted change in Energy=-9.301850D-06
 GradGradGradGradGradGradGradGradGradGradGradGradGradGradGradGradGradGrad

                          Input orientation:                          
 ---------------------------------------------------------------------
 Center     Atomic      Atomic             Coordinates (Angstroms)
 Number     Number       Type             X           Y           Z
 ---------------------------------------------------------------------
      1         29           0        0.302857    0.000000   -0.010864
      2          8           0        0.001675    0.000000    3.874172
      3          1           0        0.701764    0.000000    4.562303
      4          1           0       -0.859983    0.000000    4.343782
      5          8           0        0.023713    0.000000   -1.881595
      6          1           0        0.722127    0.000000   -2.556532
      7          1           0       -0.836927    0.000000   -2.331056
 ---------------------------------------------------------------------
                    Distance matrix (angstroms):
                    1          2          3          4          5
     1  Cu   0.000000
     2  O    3.896693   0.000000
     3  H    4.590532   0.981656   0.000000
     4  H    4.507232   0.981320   1.576961   0.000000
     5  O    1.891442   5.755809   6.479473   6.287784   0.000000
     6  H    2.579964   6.470935   7.118864   7.079365   0.971248
     7  H    2.585033   6.261638   7.063000   6.674878   0.970936
                    6          7
     6  H    0.000000
     7  H    1.575274   0.000000
 Stoichiometry    CuH4O2(2+,2)
 Framework group  CS[SG(CuH4O2)]
 Deg. of freedom    11
 Full point group                 CS      NOp   2
 Largest Abelian subgroup         CS      NOp   2
 Largest concise Abelian subgroup C1      NOp   1
                         Standard orientation:                         
 ---------------------------------------------------------------------
 Center     Atomic      Atomic             Coordinates (Angstroms)
 Number     Number       Type             X           Y           Z
 ---------------------------------------------------------------------
      1         29           0        0.000000    0.430331    0.000000
      2          8           0       -0.840694   -3.374594    0.000000
      3          1           0       -1.710527   -3.829609    0.000000
      4          1           0       -0.152669   -4.074315    0.000000
      5          8           0        0.810680    2.139234    0.000000
      6          1           0        0.338518    2.987989    0.000000
      7          1           0        1.764787    2.319225    0.000000
 ---------------------------------------------------------------------
 Rotational constants (GHZ):    116.5561124      1.5022613      1.4831454
 Standard basis: 6-311G(d) (5D, 7F)
 There are    77 symmetry adapted cartesian basis functions of A'  symmetry.
 There are    25 symmetry adapted cartesian basis functions of A"  symmetry.
 There are    70 symmetry adapted basis functions of A'  symmetry.
 There are    24 symmetry adapted basis functions of A"  symmetry.
    94 basis functions,   165 primitive gaussians,   102 cartesian basis functions
    24 alpha electrons       23 beta electrons
       nuclear repulsion energy       141.9073313349 Hartrees.
 NAtoms=    7 NActive=    7 NUniq=    7 SFac= 1.00D+00 NAtFMM=   60 NAOKFM=F Big=F
 Integral buffers will be    131072 words long.
 Raffenetti 2 integral format.
 Two-electron integral symmetry is turned on.
 One-electron integrals computed using PRISM.
 NBasis=    94 RedAO= T EigKep=  1.33D-02  NBF=    70    24
 NBsUse=    94 1.00D-06 EigRej= -1.00D+00 NBFU=    70    24
 Initial guess from the checkpoint file:  "pescuh2o2.chk"
 B after Tr=     0.000000    0.000000    0.000000
         Rot=    0.999989    0.000000    0.000000    0.004721 Ang=   0.54 deg.
 Initial guess orbital symmetries:
 Alpha Orbitals:
       Occupied  (A') (A') (A") (A') (A') (A') (A') (A') (A') (A")
                 (A') (A') (A') (A') (A') (A') (A') (A") (A") (A')
                 (A") (A') (A") (A')
       Virtual   (A') (A') (A') (A') (A') (A') (A') (A') (A') (A')
                 (A') (A') (A') (A') (A') (A') (A') (A') (A') (A')
                 (A') (A') (A') (A') (A') (A') (A') (A') (A') (A')
                 (A') (A') (A') (A') (A') (A') (A') (A') (A') (A')
                 (A') (A') (A') (A') (A') (A') (A') (A') (A') (A')
                 (A') (A') (A") (A") (A") (A") (A") (A") (A") (A")
                 (A") (A") (A") (A") (A") (A") (A") (A") (A") (A")
 Beta  Orbitals:
       Occupied  (A') (A') (A") (A') (A') (A') (A') (A') (A') (A")
                 (A') (A') (A') (A') (A') (A') (A') (A") (A') (A")
                 (A') (A') (A")
       Virtual   (A') (A') (A') (A') (A') (A') (A') (A') (A') (A')
                 (A') (A') (A') (A') (A') (A') (A') (A') (A') (A')
                 (A') (A') (A') (A') (A') (A') (A') (A') (A') (A')
                 (A') (A') (A') (A') (A') (A') (A') (A') (A') (A')
                 (A') (A') (A') (A') (A') (A') (A') (A') (A') (A')
                 (A') (A') (A") (A") (A") (A") (A") (A") (A") (A")
                 (A") (A") (A") (A") (A") (A") (A") (A") (A") (A")
                 (A")
 Initial guess <Sx>= 0.0000 <Sy>= 0.0000 <Sz>= 0.5000 <S**2>= 0.7523 S= 0.5011
 Keep R1 and R2 ints in memory in symmetry-blocked form, NReq=15923451.
 Requested convergence on RMS density matrix=1.00D-08 within  64 cycles.
 Requested convergence on MAX density matrix=1.00D-06.
 Requested convergence on             energy=1.00D-06.
 No special actions if energy rises.
 SCF Done:  E(UB3LYP) =  -1792.54458378     A.U. after   13 cycles
            NFock= 13  Conv=0.57D-08     -V/T= 2.0007
 <Sx>= 0.0000 <Sy>= 0.0000 <Sz>= 0.5000 <S**2>= 0.7523 S= 0.5011
 <L.S>= 0.000000000000E+00
 Annihilation of the first spin contaminant:
 S**2 before annihilation     0.7523,   after     0.7500
 QCSCF skips out because SCF is already converged.
 Calling FoFJK, ICntrl=      2127 FMM=F ISym2X=1 I1Cent= 0 IOpClX= 1 NMat=1 NMatS=1 NMatT=0.
 ***** Axes restored to original set *****
 -------------------------------------------------------------------
 Center     Atomic                   Forces (Hartrees/Bohr)
 Number     Number              X              Y              Z
 -------------------------------------------------------------------
      1       29           0.000688235    0.000000000   -0.003021310
      2        8          -0.001097297    0.000000000    0.004261728
      3        1           0.000138812    0.000000000   -0.000699336
      4        1           0.000495543    0.000000000    0.000141280
      5        8           0.000020383    0.000000000    0.000549697
      6        1           0.000295709    0.000000000   -0.000667156
      7        1          -0.000541386    0.000000000   -0.000564903
 -------------------------------------------------------------------
 Cartesian Forces:  Max     0.004261728 RMS     0.001218695

 GradGradGradGradGradGradGradGradGradGradGradGradGradGradGradGradGradGrad
 Berny optimization.
 Using GEDIIS/GDIIS optimizer.
 FormGI is forming the generalized inverse of G from B-inverse, IUseBI=4.
 Internal  Forces:  Max     0.003732980 RMS     0.000982053
 Search for a local minimum.
 Step number   4 out of a maximum of  100 on scan point     1 out of    26
 All quantities printed in internal units (Hartrees-Bohrs-Radians)
 Mixed Optimization -- En-DIIS/RFO-DIIS
 Swapping is turned off.
 Update second derivatives using D2CorX and points    1    2    3    4
 DE= -2.84D-05 DEPred=-9.30D-06 R= 3.06D+00
 TightC=F SS=  1.41D+00  RLast= 1.28D-02 DXNew= 5.0454D-01 3.8473D-02
 Trust test= 3.06D+00 RLast= 1.28D-02 DXMaxT set to 3.00D-01
 The second derivative matrix:
                          R1        R2        R3        R4        R5
           R1           0.00849
           R2          -0.00019   0.15599
           R3           0.00001   0.00673   0.51872
           R4           0.00006   0.00668   0.00007   0.51854
           R5           0.00018  -0.00884  -0.00218  -0.00046   0.52877
           R6           0.00018  -0.00931  -0.00218  -0.00046   0.01046
           A1          -0.00009   0.00036  -0.00005   0.00256   0.00477
           A2           0.00022   0.00561  -0.00222  -0.00435   0.00017
           A3          -0.00013  -0.00597   0.00227   0.00179  -0.00494
           A4          -0.00020  -0.00951   0.00332   0.00289  -0.00664
           A5           0.00009  -0.00027   0.00048   0.00082   0.00132
           A6           0.00010   0.00979  -0.00380  -0.00371   0.00532
           A7          -0.00017   0.00683  -0.00239  -0.00365  -0.00216
           A8           0.00000   0.00000   0.00000   0.00000   0.00000
           D1           0.00000   0.00000   0.00000   0.00000   0.00000
           D2           0.00000   0.00000   0.00000   0.00000   0.00000
           D3           0.00000   0.00000   0.00000   0.00000   0.00000
           D4           0.00000   0.00000   0.00000   0.00000   0.00000
                          R6        A1        A2        A3        A4
           R6           0.52897
           A1           0.00514   0.09572
           A2          -0.00007   0.06711   0.08913
           A3          -0.00506  -0.00284   0.00376   0.15908
           A4          -0.00678  -0.01006   0.01193  -0.00187   0.15595
           A5           0.00120   0.01129  -0.01054  -0.00075  -0.00013
           A6           0.00558  -0.00123  -0.00139   0.00262   0.00419
           A7          -0.00190  -0.00915   0.00517   0.00398   0.00521
           A8           0.00000   0.00000   0.00000   0.00000   0.00000
           D1           0.00000   0.00000   0.00000   0.00000   0.00000
           D2           0.00000   0.00000   0.00000   0.00000   0.00000
           D3           0.00000   0.00000   0.00000   0.00000   0.00000
           D4           0.00000   0.00000   0.00000   0.00000   0.00000
                          A5        A6        A7        A8        D1
           A5           0.16018
           A6          -0.00005   0.15586
           A7          -0.00231  -0.00290   0.03787
           A8           0.00000   0.00000   0.00000   0.03281
           D1           0.00000   0.00000   0.00000   0.00000   0.00230
           D2           0.00000   0.00000   0.00000   0.00000   0.00000
           D3           0.00000   0.00000   0.00000   0.00000   0.00000
           D4           0.00000   0.00000   0.00000   0.00000   0.00000
                          D2        D3        D4
           D2           0.00230
           D3           0.00000   0.00230
           D4           0.00000   0.00000   0.00230
 ITU=  1  1  1  0
     Eigenvalues ---    0.00230   0.00230   0.00230   0.01747   0.03281
     Eigenvalues ---    0.04028   0.13800   0.16002   0.16339   0.16909
     Eigenvalues ---    0.51833   0.51841   0.51880   0.540991000.00000
     Eigenvalues --- 1000.000001000.000001000.00000
 En-DIIS/RFO-DIIS IScMMF=        0 using points:     4    3    2
 RFO step:  Lambda=-1.45890177D-05.
 DidBck=F Rises=F RFO-DIIS coefs:    5.26151   -3.97025   -0.29125
 Iteration  1 RMS(Cart)=  0.02123186 RMS(Int)=  0.00037368
 Iteration  2 RMS(Cart)=  0.00043340 RMS(Int)=  0.00000000
 Iteration  3 RMS(Cart)=  0.00000000 RMS(Int)=  0.00000000
 Iteration  1 RMS(Cart)=  0.00000000 RMS(Int)=  0.00000000
 ClnCor:  largest displacement from symmetrization is 1.40D-11 for atom     7.
 Variable       Old X    -DE/DX   Delta X   Delta X   Delta X     New X
                                 (Linear)    (Quad)   (Total)
    R1        7.36368   0.00373   0.00000   0.00000   0.00000   7.36368
    R2        3.57431   0.00070   0.00190   0.00220   0.00410   3.57841
    R3        1.85506  -0.00041  -0.00009  -0.00065  -0.00074   1.85432
    R4        1.85443  -0.00035   0.00041  -0.00071  -0.00030   1.85413
    R5        1.83539   0.00069   0.00121   0.00039   0.00160   1.83699
    R6        1.83480   0.00072   0.00127   0.00046   0.00173   1.83653
    A1        2.27021  -0.00092  -0.03112  -0.01300  -0.04412   2.22609
    A2        2.14717   0.00078   0.03250   0.01171   0.04421   2.19138
    A3        1.86581   0.00014  -0.00138   0.00129  -0.00009   1.86572
    A4        2.19098   0.00015  -0.00487   0.00080  -0.00407   2.18690
    A5        2.20020   0.00017   0.00660   0.00015   0.00675   2.20695
    A6        1.89201  -0.00032  -0.00172  -0.00095  -0.00268   1.88933
    A7        2.91610  -0.00016  -0.03346   0.01294  -0.02052   2.89558
    A8        3.14159   0.00000   0.00000   0.00000   0.00000   3.14159
    D1        0.00000   0.00000   0.00000   0.00000   0.00000   0.00000
    D2        3.14159   0.00000   0.00000   0.00000   0.00000   3.14159
    D3        3.14159   0.00000   0.00000   0.00000   0.00000   3.14159
    D4        0.00000   0.00000   0.00000   0.00000   0.00000   0.00000
         Item               Value     Threshold  Converged?
 Maximum Force            0.000920     0.000450     NO 
 RMS     Force            0.000449     0.000300     NO 
 Maximum Displacement     0.051171     0.001800     NO 
 RMS     Displacement     0.021243     0.001200     NO 
 Predicted change in Energy=-4.242195D-05
 GradGradGradGradGradGradGradGradGradGradGradGradGradGradGradGradGradGrad

                          Input orientation:                          
 ---------------------------------------------------------------------
 Center     Atomic      Atomic             Coordinates (Angstroms)
 Number     Number       Type             X           Y           Z
 ---------------------------------------------------------------------
      1         29           0        0.323346    0.000000   -0.010198
      2          8           0       -0.016764    0.000000    3.871624
      3          1           0        0.706086    0.000000    4.535225
      4          1           0       -0.861733    0.000000    4.370331
      5          8           0        0.024248    0.000000   -1.880040
      6          1           0        0.718920    0.000000   -2.560036
      7          1           0       -0.838878    0.000000   -2.326697
 ---------------------------------------------------------------------
                    Distance matrix (angstroms):
                    1          2          3          4          5
     1  Cu   0.000000
     2  O    3.896693   0.000000
     3  H    4.561508   0.981263   0.000000
     4  H    4.538000   0.981163   1.576466   0.000000
     5  O    1.893613   5.751810   6.451397   6.312851   0.000000
     6  H    2.580340   6.473599   7.095272   7.108336   0.972093
     7  H    2.591705   6.252605   7.033697   6.697067   0.971849
                    6          7
     6  H    0.000000
     7  H    1.575177   0.000000
 Stoichiometry    CuH4O2(2+,2)
 Framework group  CS[SG(CuH4O2)]
 Deg. of freedom    11
 Full point group                 CS      NOp   2
 Largest Abelian subgroup         CS      NOp   2
 Largest concise Abelian subgroup C1      NOp   1
                         Standard orientation:                         
 ---------------------------------------------------------------------
 Center     Atomic      Atomic             Coordinates (Angstroms)
 Number     Number       Type             X           Y           Z
 ---------------------------------------------------------------------
      1         29           0        0.000000    0.433355    0.000000
      2          8           0       -0.898815   -3.358260    0.000000
      3          1           0       -1.793776   -3.760655    0.000000
      4          1           0       -0.253727   -4.097546    0.000000
      5          8           0        0.872356    2.114059    0.000000
      6          1           0        0.426982    2.978122    0.000000
      7          1           0        1.832192    2.266388    0.000000
 ---------------------------------------------------------------------
 Rotational constants (GHZ):    108.1051805      1.5038857      1.4832517
 Standard basis: 6-311G(d) (5D, 7F)
 There are    77 symmetry adapted cartesian basis functions of A'  symmetry.
 There are    25 symmetry adapted cartesian basis functions of A"  symmetry.
 There are    70 symmetry adapted basis functions of A'  symmetry.
 There are    24 symmetry adapted basis functions of A"  symmetry.
    94 basis functions,   165 primitive gaussians,   102 cartesian basis functions
    24 alpha electrons       23 beta electrons
       nuclear repulsion energy       141.8145872383 Hartrees.
 NAtoms=    7 NActive=    7 NUniq=    7 SFac= 1.00D+00 NAtFMM=   60 NAOKFM=F Big=F
 Integral buffers will be    131072 words long.
 Raffenetti 2 integral format.
 Two-electron integral symmetry is turned on.
 One-electron integrals computed using PRISM.
 NBasis=    94 RedAO= T EigKep=  1.33D-02  NBF=    70    24
 NBsUse=    94 1.00D-06 EigRej= -1.00D+00 NBFU=    70    24
 Initial guess from the checkpoint file:  "pescuh2o2.chk"
 B after Tr=     0.000000    0.000000    0.000000
         Rot=    0.999941    0.000000    0.000000    0.010882 Ang=   1.25 deg.
 Initial guess orbital symmetries:
 Alpha Orbitals:
       Occupied  (A') (A') (A") (A') (A') (A') (A') (A') (A') (A")
                 (A') (A') (A') (A') (A') (A') (A') (A") (A") (A')
                 (A") (A') (A") (A')
       Virtual   (A') (A') (A') (A') (A') (A') (A') (A') (A') (A')
                 (A') (A') (A') (A') (A') (A') (A') (A') (A') (A')
                 (A') (A') (A') (A') (A') (A') (A') (A') (A') (A')
                 (A') (A') (A') (A') (A') (A') (A') (A') (A') (A')
                 (A') (A') (A') (A') (A') (A') (A') (A') (A') (A')
                 (A') (A') (A") (A") (A") (A") (A") (A") (A") (A")
                 (A") (A") (A") (A") (A") (A") (A") (A") (A") (A")
 Beta  Orbitals:
       Occupied  (A') (A') (A") (A') (A') (A') (A') (A') (A') (A")
                 (A') (A') (A') (A') (A') (A') (A') (A") (A') (A")
                 (A') (A') (A")
       Virtual   (A') (A') (A') (A') (A') (A') (A') (A') (A') (A')
                 (A') (A') (A') (A') (A') (A') (A') (A') (A') (A')
                 (A') (A') (A') (A') (A') (A') (A') (A') (A') (A')
                 (A') (A') (A') (A') (A') (A') (A') (A') (A') (A')
                 (A') (A') (A') (A') (A') (A') (A') (A') (A') (A')
                 (A') (A') (A") (A") (A") (A") (A") (A") (A") (A")
                 (A") (A") (A") (A") (A") (A") (A") (A") (A") (A")
                 (A")
 Initial guess <Sx>= 0.0000 <Sy>= 0.0000 <Sz>= 0.5000 <S**2>= 0.7523 S= 0.5011
 ExpMin= 4.08D-02 ExpMax= 3.37D+05 ExpMxC= 1.14D+04 IAcc=2 IRadAn=         4 AccDes= 0.00D+00
[...]
           A5         126.01570 126.00478 126.01582 126.03999 126.03880
           A6         107.91777 107.91619 107.92390 107.94537 107.97093
           A7         178.71189 178.90926 179.18602 179.62309 179.78336
           A8         180.00000 180.00000 180.00000 180.00000 180.00000
           D1           0.00000   0.00000   0.00000   0.00000   0.00000
           D2         180.00000 180.00000 180.00000 180.00000 180.00000
           D3         180.00000 180.00000 180.00000 180.00000 180.00000
           D4           0.00000   0.00000   0.00000   0.00000   0.00000
                          21        22        23        24        25
     Eigenvalues --  **************************************************
           R1           1.89669   1.79669   1.69669   1.59669   1.49669
           R2           1.84749   1.84351   1.84016   1.83656   1.83320
           R3           0.97789   0.97994   0.98256   0.98606   0.99075
           R4           0.97792   0.97996   0.98257   0.98612   0.99085
           R5           0.97888   0.97875   0.97854   0.97832   0.97806
           R6           0.97885   0.97875   0.97853   0.97826   0.97798
           A1         125.89529 126.11547 126.54429 127.11667 127.81441
           A2         125.82300 126.13170 126.52635 127.00487 127.71897
           A3         108.28171 107.75282 106.92936 105.87845 104.46662
           A4         125.96415 125.98646 125.95787 125.91425 125.88767
           A5         126.03677 125.99290 125.97419 126.00454 126.01406
           A6         107.99908 108.02065 108.06794 108.08121 108.09828
           A7         180.02055 180.01355 179.99202 179.99227 179.96609
           A8         180.00000 180.00000 180.00000 180.00000 180.00000
           D1           0.00000   0.00000   0.00000   0.00000   0.00000
           D2         180.00000 180.00000 180.00000 180.00000 180.00000
           D3         180.00000 180.00000 180.00000 180.00000 180.00000
           D4           0.00000   0.00000   0.00000   0.00000   0.00000
                          26
     Eigenvalues --  **********
           R1           1.39669
           R2           1.83131
           R3           0.99736
           R4           0.99746
           R5           0.97777
           R6           0.97771
           A1         128.76402
           A2         128.66662
           A3         102.56936
           A4         125.90140
           A5         126.01210
           A6         108.08650
           A7         179.96599
           A8         180.00000
           D1           0.00000
           D2         180.00000
           D3         180.00000
           D4           0.00000
                          Input orientation:                          
 ---------------------------------------------------------------------
 Center     Atomic      Atomic             Coordinates (Angstroms)
 Number     Number       Type             X           Y           Z
 ---------------------------------------------------------------------
      1         29           0        0.007695    0.000000    1.029230
      2          8           0        0.001576    0.000000    2.425910
      3          1           0        0.776506    0.000000    3.053773
      4          1           0       -0.779959    0.000000    3.045692
      5          8           0        0.014632    0.000000   -0.802066
      6          1           0        0.808822    0.000000   -1.372422
      7          1           0       -0.774045    0.000000   -1.379906
 ---------------------------------------------------------------------
                    Distance matrix (angstroms):
                    1          2          3          4          5
     1  Cu   0.000000
     2  O    1.396693   0.000000
     3  H    2.165605   0.997361   0.000000
     4  H    2.164837   0.997460   1.556485   0.000000
     5  O    1.831309   3.228002   3.930388   3.928946   0.000000
     6  H    2.531745   3.883165   4.426312   4.695099   0.977775
     7  H    2.532796   3.884047   4.696990   4.425602   0.977706
                    6          7
     6  H    0.000000
     7  H    1.582885   0.000000
 Stoichiometry    CuH4O2(2+,2)
 Framework group  CS[SG(CuH4O2)]
 Deg. of freedom    11
 Full point group                 CS      NOp   2
 Largest Abelian subgroup         CS      NOp   2
 Largest concise Abelian subgroup C1      NOp   1
                         Standard orientation:                         
 ---------------------------------------------------------------------
 Center     Atomic      Atomic             Coordinates (Angstroms)
 Number     Number       Type             X           Y           Z
 ---------------------------------------------------------------------
      1         29           0        0.000000   -0.086668    0.000000
      2          8           0        0.003791   -1.483356    0.000000
      3          1           0       -0.772185   -2.109926    0.000000
      4          1           0        0.784291   -2.104441    0.000000
      5          8           0       -0.003883    1.744637    0.000000
      6          1           0       -0.797122    2.316316    0.000000
      7          1           0        0.785756    2.321161    0.000000
 ---------------------------------------------------------------------
 Rotational constants (GHZ):    203.5051807      4.8532451      4.7401995

 **********************************************************************

            Population analysis using the SCF density.

 **********************************************************************

 Orbital symmetries:
 Alpha Orbitals:
       Occupied  (A') (A') (A') (A") (A') (A') (A') (A') (A') (A")
                 (A') (A') (A') (A') (A') (A") (A') (A') (A') (A")
                 (A') (A") (A') (A")
       Virtual   (A') (A') (A') (A') (A') (A') (A') (A') (A') (A')
                 (A") (A') (A") (A') (A') (A') (A') (A') (A") (A")
                 (A') (A") (A') (A') (A') (A') (A') (A') (A') (A')
                 (A") (A") (A') (A") (A") (A') (A') (A') (A') (A')
                 (A') (A") (A') (A") (A') (A") (A') (A') (A") (A")
                 (A') (A') (A') (A') (A") (A') (A") (A') (A') (A")
                 (A') (A') (A') (A") (A') (A') (A') (A') (A') (A')
 Beta  Orbitals:
       Occupied  (A') (A') (A') (A") (A') (A') (A') (A') (A') (A")
                 (A') (A') (A') (A') (A') (A') (A") (A') (A') (A")
                 (A') (A") (A')
       Virtual   (A") (A') (A') (A') (A') (A') (A') (A') (A') (A')
                 (A') (A") (A') (A") (A') (A') (A') (A') (A') (A")
                 (A") (A') (A") (A') (A') (A') (A') (A') (A') (A')
                 (A') (A") (A") (A') (A") (A") (A') (A') (A') (A')
                 (A') (A') (A") (A') (A") (A') (A") (A') (A') (A")
                 (A") (A') (A') (A') (A') (A") (A') (A") (A') (A')
                 (A") (A') (A') (A') (A") (A') (A') (A') (A') (A')
                 (A')
 The electronic state is 2-A".
 Alpha  occ. eigenvalues -- -323.58936 -39.41398 -34.64246 -34.63965 -34.61124
 Alpha  occ. eigenvalues --  -19.72282 -19.63236  -4.94729  -3.47741  -3.45040
 Alpha  occ. eigenvalues --   -3.39786  -1.62438  -1.51228  -1.14341  -1.12702
 Alpha  occ. eigenvalues --   -1.03880  -1.02607  -0.95552  -0.89312  -0.89256
 Alpha  occ. eigenvalues --   -0.88150  -0.87056  -0.82057  -0.81082
 Alpha virt. eigenvalues --   -0.44699  -0.37398  -0.33595  -0.29163  -0.27215
 Alpha virt. eigenvalues --   -0.19643  -0.17882  -0.04882  -0.02595   0.02230
 Alpha virt. eigenvalues --    0.15005   0.25983   0.26241   0.29184   0.38865
 Alpha virt. eigenvalues --    0.42926   0.60432   0.73503   0.80647   0.89015
 Alpha virt. eigenvalues --    0.90395   0.94384   1.00360   1.07792   1.21257
 Alpha virt. eigenvalues --    1.55215   1.55303   1.59414   1.59456   1.64534
 Alpha virt. eigenvalues --    2.14537   2.18652   2.19487   2.25095   2.41532
 Alpha virt. eigenvalues --    2.48656   2.61789   2.66658   2.66739   2.92851
 Alpha virt. eigenvalues --    3.18274   3.37264   3.38053   3.38944   3.38945
 Alpha virt. eigenvalues --    3.52754   3.59708   3.69879   4.23139   4.24490
 Alpha virt. eigenvalues --    4.40544   4.48716   4.49843   5.37533   6.57160
 Alpha virt. eigenvalues --    6.57421   6.65536   6.79097   7.11440   8.73115
 Alpha virt. eigenvalues --    8.87432   9.53518  31.51281  42.14488  42.25676
 Alpha virt. eigenvalues --   42.72031  49.18973  49.23183 183.54079 978.81220
  Beta  occ. eigenvalues -- -323.58935 -39.39337 -34.61987 -34.61747 -34.60592
  Beta  occ. eigenvalues --  -19.71623 -19.62885  -4.90595  -3.41915  -3.39218
  Beta  occ. eigenvalues --   -3.38440  -1.60901  -1.50416  -1.13591  -1.12103
  Beta  occ. eigenvalues --   -1.02338  -0.95790  -0.95199  -0.87362  -0.87177
  Beta  occ. eigenvalues --   -0.86243  -0.81047  -0.80589
  Beta virt. eigenvalues --   -0.65742  -0.44313  -0.37165  -0.33462  -0.28914
  Beta virt. eigenvalues --   -0.27140  -0.19463  -0.17931  -0.04834  -0.02401
  Beta virt. eigenvalues --    0.02322   0.16879   0.26303   0.27512   0.29456
  Beta virt. eigenvalues --    0.39098   0.43171   0.61114   0.74016   0.82337
  Beta virt. eigenvalues --    0.89703   0.91118   0.98886   1.00701   1.08831
  Beta virt. eigenvalues --    1.21714   1.55241   1.56479   1.59425   1.59529
  Beta virt. eigenvalues --    1.64705   2.16477   2.20074   2.20833   2.26166
  Beta virt. eigenvalues --    2.43246   2.50509   2.62098   2.66997   2.67769
  Beta virt. eigenvalues --    2.93012   3.19886   3.39721   3.39729   3.40371
  Beta virt. eigenvalues --    3.41132   3.56507   3.60883   3.70498   4.24611
  Beta virt. eigenvalues --    4.27364   4.41117   4.49059   4.50145   5.38559
  Beta virt. eigenvalues --    6.58818   6.59084   6.73369   6.80723   7.12752
  Beta virt. eigenvalues --    8.76599   8.88338   9.56965  31.54007  42.17340
  Beta virt. eigenvalues --   42.26469  42.74901  49.19610  49.23549 183.55111
  Beta virt. eigenvalues --  978.81424
          Condensed to atoms (all electrons):
               1          2          3          4          5          6
     1  Cu  27.458027   0.072238  -0.013418  -0.013449   0.116399  -0.006531
     2  O    0.072238   8.336806   0.224675   0.224669  -0.007040  -0.000080
     3  H   -0.013418   0.224675   0.207112  -0.014365   0.000047   0.000039
     4  H   -0.013449   0.224669  -0.014365   0.207230   0.000047  -0.000006
     5  O    0.116399  -0.007040   0.000047   0.000047   8.280222   0.243466
     6  H   -0.006531  -0.000080   0.000039  -0.000006   0.243466   0.206163
     7  H   -0.006521  -0.000079  -0.000006   0.000039   0.243495  -0.014395
               7
     1  Cu  -0.006521
     2  O   -0.000079
     3  H   -0.000006
     4  H    0.000039
     5  O    0.243495
     6  H   -0.014395
     7  H    0.205992
          Atomic-Atomic Spin Densities.
               1          2          3          4          5          6
     1  Cu   0.743828  -0.054729   0.000528   0.000529  -0.013134   0.000194
     2  O   -0.054729   0.292435  -0.002929  -0.002928  -0.000194   0.000003
     3  H    0.000528  -0.002929  -0.006751   0.000728  -0.000005  -0.000002
     4  H    0.000529  -0.002928   0.000728  -0.006754  -0.000005   0.000000
     5  O   -0.013134  -0.000194  -0.000005  -0.000005   0.131830  -0.001488
     6  H    0.000194   0.000003  -0.000002   0.000000  -0.001488  -0.002746
     7  H    0.000194   0.000003   0.000000  -0.000002  -0.001490   0.000176
               7
     1  Cu   0.000194
     2  O    0.000003
     3  H    0.000000
     4  H   -0.000002
     5  O   -0.001490
     6  H    0.000176
     7  H   -0.002745
 Mulliken charges and spin densities:
               1          2
     1  Cu   1.393254   0.677410
     2  O   -0.851189   0.231663
     3  H    0.595917  -0.008431
     4  H    0.595836  -0.008431
     5  O   -0.876637   0.115514
     6  H    0.571344  -0.003862
     7  H    0.571475  -0.003863
 Sum of Mulliken charges =   2.00000   1.00000
 Mulliken charges and spin densities with hydrogens summed into heavy atoms:
               1          2
     1  Cu   1.393254   0.677410
     2  O    0.340563   0.214801
     5  O    0.266182   0.107789
 Electronic spatial extent (au):  <R**2>=            247.1582
 Charge=              2.0000 electrons
 Dipole moment (field-independent basis, Debye):
    X=              0.0040    Y=             -0.9663    Z=              0.0000  Tot=              0.9663
 Quadrupole moment (field-independent basis, Debye-Ang):
   XX=            -14.6226   YY=             12.7753   ZZ=            -21.8935
   XY=             -0.0708   XZ=              0.0000   YZ=              0.0000
 Traceless Quadrupole moment (field-independent basis, Debye-Ang):
   XX=             -6.7090   YY=             20.6889   ZZ=            -13.9799
   XY=             -0.0708   XZ=              0.0000   YZ=              0.0000
 Octapole moment (field-independent basis, Debye-Ang**2):
  XXX=              0.0060  YYY=              3.4711  ZZZ=              0.0000  XYY=              0.0008
  XXY=             -0.2288  XXZ=              0.0000  XZZ=              0.0017  YZZ=             -1.4971
  YYZ=              0.0000  XYZ=              0.0000
 Hexadecapole moment (field-independent basis, Debye-Ang**3):
 XXXX=            -12.6681 YYYY=            -10.9915 ZZZZ=            -14.5988 XXXY=             -0.0088
 XXXZ=              0.0000 YYYX=              0.0228 YYYZ=              0.0000 ZZZX=              0.0000
 ZZZY=              0.0000 XXYY=             -5.7950 XXZZ=             -5.3168 YYZZ=            -41.0609
 XXYZ=              0.0000 YYXZ=              0.0000 ZZXY=              0.0855
 N-N= 2.143480931276D+02 E-N=-4.688440975458D+03  KE= 1.792414471274D+03
 Symmetry A'   KE= 1.568124802676D+03
 Symmetry A"   KE= 2.242896685976D+02
                          Isotropic Fermi Contact Couplings
        Atom                 a.u.       MegaHertz       Gauss      10(-4) cm-1
     1  Cu(63)            -0.25670    -304.47005    -108.64248    -101.56028
     2  O(17)              0.02767     -16.77562      -5.98596      -5.59574
     3  H(1)              -0.00458     -20.49271      -7.31231      -6.83563
     4  H(1)              -0.00458     -20.49270      -7.31230      -6.83563
     5  O(17)              0.01768     -10.72032      -3.82528      -3.57591
     6  H(1)              -0.00216      -9.65353      -3.44462      -3.22007
     7  H(1)              -0.00216      -9.65405      -3.44480      -3.22024
 --------------------------------------------------------
       Center         ----  Spin Dipole Couplings  ----
                      3XX-RR        3YY-RR        3ZZ-RR
 --------------------------------------------------------
     1   Atom       -3.506314      1.805799      1.700515
     2   Atom       -0.541985     -0.444703      0.986688
     3   Atom        0.010001      0.011719     -0.021720
     4   Atom        0.010612      0.011118     -0.021730
     5   Atom       -0.290867     -0.245573      0.536440
     6   Atom        0.005845      0.008333     -0.014178
     7   Atom        0.005561      0.008609     -0.014170
 --------------------------------------------------------
                        XY            XZ            YZ
 --------------------------------------------------------
     1   Atom       -0.013314      0.000000      0.000000
     2   Atom       -0.000269      0.000000      0.000000
     3   Atom        0.044574      0.000000      0.000000
     4   Atom       -0.044561      0.000000      0.000000
     5   Atom       -0.000096      0.000000      0.000000
     6   Atom       -0.024811      0.000000      0.000000
     7   Atom        0.024810      0.000000      0.000000
 --------------------------------------------------------


 ---------------------------------------------------------------------------------
              Anisotropic Spin Dipole Couplings in Principal Axis System
 ---------------------------------------------------------------------------------

       Atom             a.u.   MegaHertz   Gauss  10(-4) cm-1        Axes

              Baa    -3.5063  -496.435  -177.140  -165.593  1.0000  0.0025  0.0000
     1 Cu(63) Bbb     1.7005   240.762    85.910    80.309  0.0000  0.0000  1.0000
              Bcc     1.8058   255.673    91.230    85.283 -0.0025  1.0000  0.0000
 
              Baa    -0.5420    39.218    13.994    13.082  1.0000  0.0028  0.0000
     2 O(17)  Bbb    -0.4447    32.178    11.482    10.734 -0.0028  1.0000  0.0000
              Bcc     0.9867   -71.396   -25.476   -23.815  0.0000  0.0000  1.0000
 
              Baa    -0.0337   -17.992    -6.420    -6.002  0.7139 -0.7003  0.0000
     3 H(1)   Bbb    -0.0217   -11.589    -4.135    -3.866  0.0000  0.0000  1.0000
              Bcc     0.0554    29.581    10.555     9.867  0.7003  0.7139  0.0000
 
              Baa    -0.0337   -17.979    -6.415    -5.997  0.7091  0.7051  0.0000
     4 H(1)   Bbb    -0.0217   -11.594    -4.137    -3.867  0.0000  0.0000  1.0000
              Bcc     0.0554    29.573    10.553     9.865 -0.7051  0.7091  0.0000
 
              Baa    -0.2909    21.047     7.510     7.020  1.0000  0.0021  0.0000
     5 O(17)  Bbb    -0.2456    17.769     6.341     5.927 -0.0021  1.0000  0.0000
              Bcc     0.5364   -38.816   -13.851   -12.948  0.0000  0.0000  1.0000
 
              Baa    -0.0178    -9.472    -3.380    -3.160  0.7246  0.6892  0.0000
     6 H(1)   Bbb    -0.0142    -7.565    -2.699    -2.523  0.0000  0.0000  1.0000
              Bcc     0.0319    17.037     6.079     5.683 -0.6892  0.7246  0.0000
 
              Baa    -0.0178    -9.482    -3.384    -3.163  0.7285 -0.6851  0.0000
     7 H(1)   Bbb    -0.0142    -7.560    -2.698    -2.522  0.0000  0.0000  1.0000
              Bcc     0.0319    17.043     6.081     5.685  0.6851  0.7285  0.0000
 

 ---------------------------------------------------------------------------------

 1\1\GINC-HYPERION\Scan\UB3LYP\6-311G(d)\Cu1H4O2(2+,2)\JAKE\29-Jan-2016
 \0\\# opt=(modredundant,maxcycles=350) B3LYP/6-311G* scf=xqc\\cu2(h20)
 2\\2,2\Cu,0.0076950207,0.,1.0292298138\O,0.0015755758,0.,2.425909529\H
 ,0.7765055775,-0.0000000002,3.0537726927\H,-0.779958704,0.0000000002,3
 .045692147\O,0.0146315428,-0.0000000001,-0.8020663188\H,0.8088220243,-
 0.0000000003,-1.3724217394\H,-0.774045037,0.0000000001,-1.3799061242\\
 Version=EM64M-G09RevD.01\State=2-A"\HF=-1792.5446459,-1792.5439889,-17
 92.5434387,-1792.543024,-1792.5427909,-1792.5428166,-1792.5431574,-179
 2.5439649,-1792.5451985,-1792.5470238,-1792.5495069,-1792.5527522,-179
 2.5568463,-1792.5618411,-1792.5677568,-1792.5745373,-1792.5820126,-179
 2.5898513,-1792.5974566,-1792.604007,-1792.6081787,-1792.6081093,-1792
 .6005397,-1792.5804051,-1792.5397016,-1792.4657762\S2=0.752295,0.75227
 1,0.752245,0.752218,0.752189,0.752158,0.752125,0.752091,0.752055,0.752
 015,0.75197,0.751921,0.751864,0.751799,0.751729,0.751657,0.751592,0.75
 1541,0.751511,0.751503,0.751518,0.751554,0.751612,0.751688,0.751775,0.
 751856\S2-1=0.,0.,0.,0.,0.,0.,0.,0.,0.,0.,0.,0.,0.,0.,0.,0.,0.,0.,0.,0
 .,0.,0.,0.,0.,0.,0.\S2A=0.750004,0.750004,0.750004,0.750003,0.750003,0
 .750003,0.750003,0.750003,0.750003,0.750003,0.750003,0.750003,0.750003
 ,0.750002,0.750002,0.750002,0.750002,0.750002,0.750002,0.750002,0.7500
 02,0.750002,0.750002,0.750002,0.750003,0.750003\RMSD=4.976e-09,3.788e-
 09,3.918e-09,1.806e-09,2.921e-09,3.191e-09,8.166e-09,8.328e-09,9.012e-
 09,7.578e-09,7.526e-09,6.459e-09,6.549e-09,5.756e-10,9.581e-10,2.731e-
 09,2.036e-09,5.709e-09,1.990e-09,2.289e-09,1.740e-09,2.779e-09,6.762e-
 09,2.211e-09,4.676e-09,2.337e-09\PG=CS [SG(Cu1H4O2)]\\@


 NO SCIENCE HAS EVER MADE MORE RAPID PROGRESS IN A
 SHORTER TIME THAN CHEMISTRY.
   -- MARTIN HEINRICH KLOPROTH, 1791
 (FIRST PROFESSOR OF CHEMISTRY AT THE UNIVERSITY OF BERLIN)
 Job cpu time:       0 days  0 hours 17 minutes  7.0 seconds.
 File lengths (MBytes):  RWF=     10 Int=      0 D2E=      0 Chk=      3 Scr=      1
 Normal termination of Gaussian 09 at Fri Jan 29 13:24:27 2016.
