 Entering Gaussian System, Link 0=g09
 Input=2coord_b3lyp_A_F_180.inp
 Output=2coord_b3lyp_A_F_180.log
 Initial command:
 /usr/local/g09/l1.exe "./Gau-18531.inp" -scrdir="./"
 Entering Link 1 = /usr/local/g09/l1.exe PID=     18533.
  
 Copyright (c) 1988,1990,1992,1993,1995,1998,2003,2009,2013,
            Gaussian, Inc.  All Rights Reserved.
  
 This is part of the Gaussian(R) 09 program.  It is based on
 the Gaussian(R) 03 system (copyright 2003, Gaussian, Inc.),
 the Gaussian(R) 98 system (copyright 1998, Gaussian, Inc.),
 the Gaussian(R) 94 system (copyright 1995, Gaussian, Inc.),
 the Gaussian 92(TM) system (copyright 1992, Gaussian, Inc.),
 the Gaussian 90(TM) system (copyright 1990, Gaussian, Inc.),
 the Gaussian 88(TM) system (copyright 1988, Gaussian, Inc.),
 the Gaussian 86(TM) system (copyright 1986, Carnegie Mellon
 University), and the Gaussian 82(TM) system (copyright 1983,
 Carnegie Mellon University). Gaussian is a federally registered
 trademark of Gaussian, Inc.
  
 This software contains proprietary and confidential information,
 including trade secrets, belonging to Gaussian, Inc.
  
 This software is provided under written license and may be
 used, copied, transmitted, or stored only in accord with that
 written license.
  
 The following legend is applicable only to US Government
 contracts under FAR:
  
                    RESTRICTED RIGHTS LEGEND
  
 Use, reproduction and disclosure by the US Government is
 subject to restrictions as set forth in subparagraphs (a)
 and (c) of the Commercial Computer Software - Restricted
 Rights clause in FAR 52.227-19.
  
 Gaussian, Inc.
 340 Quinnipiac St., Bldg. 40, Wallingford CT 06492
  
  
 ---------------------------------------------------------------
 Warning -- This program may not be used in any manner that
 competes with the business of Gaussian, Inc. or will provide
 assistance to any competitor of Gaussian, Inc.  The licensee
 of this program is prohibited from giving any competitor of
 Gaussian, Inc. access to this program.  By using this program,
 the user acknowledges that Gaussian, Inc. is engaged in the
 business of creating and licensing software in the field of
 computational chemistry and represents and warrants to the
 licensee that it is not a competitor of Gaussian, Inc. and that
 it will not use this program in any manner prohibited above.
 ---------------------------------------------------------------
  

 Cite this work as:
 Gaussian 09, Revision D.01,
 M. J. Frisch, G. W. Trucks, H. B. Schlegel, G. E. Scuseria, 
 M. A. Robb, J. R. Cheeseman, G. Scalmani, V. Barone, B. Mennucci, 
 G. A. Petersson, H. Nakatsuji, M. Caricato, X. Li, H. P. Hratchian, 
 A. F. Izmaylov, J. Bloino, G. Zheng, J. L. Sonnenberg, M. Hada, 
 M. Ehara, K. Toyota, R. Fukuda, J. Hasegawa, M. Ishida, T. Nakajima, 
 Y. Honda, O. Kitao, H. Nakai, T. Vreven, J. A. Montgomery, Jr., 
 J. E. Peralta, F. Ogliaro, M. Bearpark, J. J. Heyd, E. Brothers, 
 K. N. Kudin, V. N. Staroverov, T. Keith, R. Kobayashi, J. Normand, 
 K. Raghavachari, A. Rendell, J. C. Burant, S. S. Iyengar, J. Tomasi, 
 M. Cossi, N. Rega, J. M. Millam, M. Klene, J. E. Knox, J. B. Cross, 
 V. Bakken, C. Adamo, J. Jaramillo, R. Gomperts, R. E. Stratmann, 
 O. Yazyev, A. J. Austin, R. Cammi, C. Pomelli, J. W. Ochterski, 
 R. L. Martin, K. Morokuma, V. G. Zakrzewski, G. A. Voth, 
 P. Salvador, J. J. Dannenberg, S. Dapprich, A. D. Daniels, 
 O. Farkas, J. B. Foresman, J. V. Ortiz, J. Cioslowski, 
 and D. J. Fox, Gaussian, Inc., Wallingford CT, 2013.
 
 ******************************************
 Gaussian 09:  EM64L-G09RevD.01 24-Apr-2013
                18-Jun-2016 
 ******************************************
 %mem=2GB
 %nprocshared=1
 Will use up to    1 processors via shared memory.
 %chk=pescuh2o2.chk
 -------------------------------------------------------
 #opt=(modredundant,maxcycles=350) B3LYP/6-311G* scf=xqc
 -------------------------------------------------------
 1/6=350,14=-1,18=120,19=15,26=3,38=1/1,3;
 2/9=110,12=2,17=6,18=5,40=1/2;
 3/5=4,6=6,7=1,11=2,16=1,25=1,30=1,71=1,74=-5/1,2,3;
 4//1;
 5/5=2,8=3,13=1,38=5/2,8;
 6/7=2,8=2,9=2,10=2,28=1/1;
 7//1,2,3,16;
 1/6=350,14=-1,18=20,19=15,26=3/3(2);
 2/9=110/2;
 99//99;
 2/9=110/2;
 3/5=4,6=6,7=1,11=2,16=1,25=1,30=1,71=1,74=-5/1,2,3;
 4/5=5,16=3,69=1/1;
 5/5=2,8=3,13=1,38=5/2,8;
 7//1,2,3,16;
 1/6=350,14=-1,18=20,19=15,26=3/3(-5);
 2/9=110/2;
 6/7=2,8=2,9=2,10=2,19=2,28=1/1;
 99/9=1/99;
 ---------
 cu2(h20)2
 ---------
 Symbolic Z-matrix:
 Charge =  2 Multiplicity = 2
 Cu
 O                    1    A
 O                    1    B        2    H
 H                    3    C        1    D        2    E        0
 H                    3    C        1    D        4    F        0
 H                    2    C        1    D        5    G        0
 H                    2    C        1    D        6    E        0
       Variables:
  A                     3.8852                   
  B                     1.88506                  
  C                     0.95                     
  D                   109.471                    
  E                    90.                       
  F                   180.                       
  G                   180.                       
  H                   180.                       
 
     4 tetrahedral angles replaced.
 Add virtual bond connecting atoms O2         and Cu1        Dist= 7.34D+00.
 The following ModRedundant input section has been read:
 L       2       1       3       4 B                                           
 B       1       2 S  25 -0.100                                                
 

 GradGradGradGradGradGradGradGradGradGradGradGradGradGradGradGradGradGrad
 Berny optimization.
 Initialization pass.
                           ----------------------------
                           !    Initial Parameters    !
                           ! (Angstroms and Degrees)  !
 --------------------------                            --------------------------
 ! Name  Definition              Value          Derivative Info.                !
 --------------------------------------------------------------------------------
 ! R1    R(1,2)                  3.8852         Scan                            !
 ! R2    R(1,3)                  1.8851         estimate D2E/DX2                !
 ! R3    R(2,6)                  0.95           estimate D2E/DX2                !
 ! R4    R(2,7)                  0.95           estimate D2E/DX2                !
 ! R5    R(3,4)                  0.95           estimate D2E/DX2                !
 ! R6    R(3,5)                  0.95           estimate D2E/DX2                !
 ! A1    A(1,2,6)              109.4712         estimate D2E/DX2                !
 ! A2    A(1,2,7)              109.4712         estimate D2E/DX2                !
 ! A3    A(6,2,7)               83.6206         estimate D2E/DX2                !
 ! A4    A(1,3,4)              109.4712         estimate D2E/DX2                !
 ! A5    A(1,3,5)              109.4712         estimate D2E/DX2                !
 ! A6    A(4,3,5)              141.0576         estimate D2E/DX2                !
 ! A7    L(2,1,3,4,-1)         180.0            estimate D2E/DX2                !
 ! A8    L(2,1,3,4,-2)         180.0            estimate D2E/DX2                !
 ! D1    D(6,2,3,4)              0.0            estimate D2E/DX2                !
 ! D2    D(6,2,3,5)            180.0            estimate D2E/DX2                !
 ! D3    D(7,2,3,4)             90.0            estimate D2E/DX2                !
 ! D4    D(7,2,3,5)            -90.0            estimate D2E/DX2                !
 --------------------------------------------------------------------------------
 Trust Radius=3.00D-01 FncErr=1.00D-07 GrdErr=1.00D-06
 Number of optimizations in scan=  26
 Number of steps in this run=    100 maximum allowed number of steps=    100.
 GradGradGradGradGradGradGradGradGradGradGradGradGradGradGradGradGradGrad

                          Input orientation:                          
 ---------------------------------------------------------------------
 Center     Atomic      Atomic             Coordinates (Angstroms)
 Number     Number       Type             X           Y           Z
 ---------------------------------------------------------------------
      1         29           0        0.000000    0.000000    0.000000
      2          8           0        0.000000    0.000000    3.885203
      3          8           0        0.000000    0.000000   -1.885061
      4          1           0        0.895669    0.000000   -2.201728
      5          1           0       -0.895669    0.000000   -2.201728
      6          1           0        0.895669    0.000000    4.201870
      7          1           0        0.000000    0.895669    4.201870
 ---------------------------------------------------------------------
                    Distance matrix (angstroms):
                    1          2          3          4          5
     1  Cu   0.000000
     2  O    3.885203   0.000000
     3  O    1.885061   5.770264   0.000000
     4  H    2.376936   6.152475   0.950000   0.000000
     5  H    2.376936   6.152475   0.950000   1.791337   0.000000
     6  H    4.296269   0.950000   6.152475   6.403597   6.649432
     7  H    4.296269   0.950000   6.152475   6.527672   6.527672
                    6          7
     6  H    0.000000
     7  H    1.266667   0.000000
 Stoichiometry    CuH4O2(2+,2)
 Framework group  C1[X(CuH4O2)]
 Deg. of freedom    15
 Full point group                 C1      NOp   1
 Largest Abelian subgroup         C1      NOp   1
 Largest concise Abelian subgroup C1      NOp   1
                         Standard orientation:                         
 ---------------------------------------------------------------------
 Center     Atomic      Atomic             Coordinates (Angstroms)
 Number     Number       Type             X           Y           Z
 ---------------------------------------------------------------------
      1         29           0       -0.408727   -0.010186   -0.011307
      2          8           0        3.475160   -0.078418   -0.085929
      3          8           0       -2.293149    0.022919    0.024899
      4          1           0       -2.593154    0.922927    0.074737
      5          1           0       -2.626263   -0.865965   -0.012773
      6          1           0        3.808274    0.810466   -0.048256
      7          1           0        3.808131   -0.128038    0.802423
 ---------------------------------------------------------------------
 Rotational constants (GHZ):    160.7147966      1.5251797      1.5177626
 Standard basis: 6-311G(d) (5D, 7F)
 There are   102 symmetry adapted cartesian basis functions of A   symmetry.
 There are    94 symmetry adapted basis functions of A   symmetry.
    94 basis functions,   165 primitive gaussians,   102 cartesian basis functions
    24 alpha electrons       23 beta electrons
       nuclear repulsion energy       144.2670913925 Hartrees.
 NAtoms=    7 NActive=    7 NUniq=    7 SFac= 1.00D+00 NAtFMM=   60 NAOKFM=F Big=F
 Integral buffers will be    131072 words long.
 Raffenetti 2 integral format.
 Two-electron integral symmetry is turned on.
 One-electron integrals computed using PRISM.
 NBasis=    94 RedAO= T EigKep=  9.37D-03  NBF=    94
 NBsUse=    94 1.00D-06 EigRej= -1.00D+00 NBFU=    94
 ExpMin= 4.08D-02 ExpMax= 3.37D+05 ExpMxC= 1.14D+04 IAcc=2 IRadAn=         4 AccDes= 0.00D+00
 Harris functional with IExCor=  402 and IRadAn=       4 diagonalized for initial guess.
 HarFok:  IExCor=  402 AccDes= 0.00D+00 IRadAn=         4 IDoV= 1 UseB2=F ITyADJ=14
 ICtDFT=  3500011 ScaDFX=  1.000000  1.000000  1.000000  1.000000
 FoFCou: FMM=F IPFlag=           0 FMFlag=      100000 FMFlg1=           0
         NFxFlg=           0 DoJE=T BraDBF=F KetDBF=T FulRan=T
         wScrn=  0.000000 ICntrl=     500 IOpCl=  0 I1Cent=   200000004 NGrid=           0
         NMat0=    1 NMatS0=      1 NMatT0=    0 NMatD0=    1 NMtDS0=    0 NMtDT0=    0
 Petite list used in FoFCou.
 Initial guess <Sx>= 0.0000 <Sy>= 0.0000 <Sz>= 0.5000 <S**2>= 0.7500 S= 0.5000
 Keep R1 and R2 ints in memory in canonical form, NReq=21960675.
 Requested convergence on RMS density matrix=1.00D-08 within  64 cycles.
 Requested convergence on MAX density matrix=1.00D-06.
 Requested convergence on             energy=1.00D-06.
 No special actions if energy rises.
 EnCoef did   100 forward-backward iterations
 EnCoef did   100 forward-backward iterations
 EnCoef did     9 forward-backward iterations
 EnCoef did     4 forward-backward iterations
 EnCoef did   100 forward-backward iterations
 Rare condition: small coef for last iteration:  0.000D+00
 EnCoef did   100 forward-backward iterations
 EnCoef did   100 forward-backward iterations
 Rare condition: small coef for last iteration:  0.000D+00
 EnCoef did   100 forward-backward iterations
 Rare condition: small coef for last iteration:  0.000D+00
 EnCoef did    74 forward-backward iterations
 Rare condition: small coef for last iteration:  0.000D+00
 EnCoef did   100 forward-backward iterations
 Rare condition: small coef for last iteration:  0.000D+00
 SCF Done:  E(UB3LYP) =  -1792.48847144     A.U. after   37 cycles
            NFock= 37  Conv=0.89D-08     -V/T= 2.0005
 <Sx>= 0.0000 <Sy>= 0.0000 <Sz>= 0.5000 <S**2>= 0.7529 S= 0.5014
 <L.S>= 0.000000000000E+00
 Annihilation of the first spin contaminant:
 S**2 before annihilation     0.7529,   after     0.7500
 QCSCF skips out because SCF is already converged.

 **********************************************************************

            Population analysis using the SCF density.

 **********************************************************************

 Orbital symmetries:
 Alpha Orbitals:
       Occupied  (A) (A) (A) (A) (A) (A) (A) (A) (A) (A) (A) (A)
                 (A) (A) (A) (A) (A) (A) (A) (A) (A) (A) (A) (A)
       Virtual   (A) (A) (A) (A) (A) (A) (A) (A) (A) (A) (A) (A)
                 (A) (A) (A) (A) (A) (A) (A) (A) (A) (A) (A) (A)
                 (A) (A) (A) (A) (A) (A) (A) (A) (A) (A) (A) (A)
                 (A) (A) (A) (A) (A) (A) (A) (A) (A) (A) (A) (A)
                 (A) (A) (A) (A) (A) (A) (A) (A) (A) (A) (A) (A)
                 (A) (A) (A) (A) (A) (A) (A) (A) (A) (A)
 Beta  Orbitals:
       Occupied  (A) (A) (A) (A) (A) (A) (A) (A) (A) (A) (A) (A)
                 (A) (A) (A) (A) (A) (A) (A) (A) (A) (A) (A)
       Virtual   (A) (A) (A) (A) (A) (A) (A) (A) (A) (A) (A) (A)
                 (A) (A) (A) (A) (A) (A) (A) (A) (A) (A) (A) (A)
                 (A) (A) (A) (A) (A) (A) (A) (A) (A) (A) (A) (A)
                 (A) (A) (A) (A) (A) (A) (A) (A) (A) (A) (A) (A)
                 (A) (A) (A) (A) (A) (A) (A) (A) (A) (A) (A) (A)
                 (A) (A) (A) (A) (A) (A) (A) (A) (A) (A) (A)
 The electronic state is 2-A.
 Alpha  occ. eigenvalues -- -323.46058 -39.25557 -34.48334 -34.48098 -34.46525
 Alpha  occ. eigenvalues --  -19.58475 -19.57468  -4.79122  -3.30160  -3.29703
 Alpha  occ. eigenvalues --   -3.26511  -1.48322  -1.46331  -1.04034  -0.91381
 Alpha  occ. eigenvalues --   -0.87241  -0.85157  -0.81681  -0.78123  -0.76727
 Alpha  occ. eigenvalues --   -0.76706  -0.76535  -0.75313  -0.74069
 Alpha virt. eigenvalues --   -0.50984  -0.32277  -0.30686  -0.24000  -0.21488
 Alpha virt. eigenvalues --   -0.19057  -0.04598   0.00681   0.04161   0.09540
 Alpha virt. eigenvalues --    0.27817   0.30067   0.34647   0.39872   0.43011
 Alpha virt. eigenvalues --    0.51149   0.68028   0.76147   0.81494   0.85296
 Alpha virt. eigenvalues --    0.97935   0.97968   0.99844   1.00474   1.20683
 Alpha virt. eigenvalues --    1.27066   1.55295   1.55778   1.72116   1.73305
 Alpha virt. eigenvalues --    2.27554   2.29619   2.31228   2.31902   2.36547
 Alpha virt. eigenvalues --    2.52420   2.69024   2.71307   2.75643   3.03327
 Alpha virt. eigenvalues --    3.03604   3.46780   3.46905   3.47148   3.48523
 Alpha virt. eigenvalues --    3.48580   3.49750   3.50146   4.26903   4.28711
 Alpha virt. eigenvalues --    4.43481   4.48170   4.49555   4.66437   6.69332
 Alpha virt. eigenvalues --    6.69391   6.69545   6.76468   6.81995   8.77559
 Alpha virt. eigenvalues --    8.85754   9.08738  31.47757  42.23756  42.29732
 Alpha virt. eigenvalues --   42.44882  49.25707  49.28645 183.54489 978.80071
  Beta  occ. eigenvalues -- -323.46058 -39.24389 -34.47033 -34.46853 -34.46230
  Beta  occ. eigenvalues --  -19.57258 -19.57139  -4.76717  -3.26582  -3.26406
  Beta  occ. eigenvalues --   -3.25725  -1.45852  -1.45104  -1.03895  -0.90315
  Beta  occ. eigenvalues --   -0.86895  -0.83623  -0.77013  -0.75672  -0.75513
  Beta  occ. eigenvalues --   -0.75299  -0.73061  -0.66871
  Beta virt. eigenvalues --   -0.64235  -0.50683  -0.32163  -0.30272  -0.23959
  Beta virt. eigenvalues --   -0.21216  -0.18888  -0.04543   0.00677   0.04189
  Beta virt. eigenvalues --    0.10209   0.28163   0.30805   0.38696   0.40646
  Beta virt. eigenvalues --    0.43135   0.51829   0.68368   0.78046   0.82861
  Beta virt. eigenvalues --    0.85589   0.98344   0.98467   1.00464   1.03366
  Beta virt. eigenvalues --    1.21058   1.27865   1.55383   1.55668   1.72100
  Beta virt. eigenvalues --    1.74028   2.28190   2.30565   2.35575   2.36307
  Beta virt. eigenvalues --    2.37213   2.53113   2.69132   2.72541   2.80111
  Beta virt. eigenvalues --    3.03610   3.04253   3.48732   3.48879   3.49185
  Beta virt. eigenvalues --    3.49222   3.49775   3.50357   3.50679   4.29577
  Beta virt. eigenvalues --    4.32779   4.43704   4.49322   4.50773   4.66614
  Beta virt. eigenvalues --    6.70319   6.70357   6.74207   6.77444   6.82865
  Beta virt. eigenvalues --    8.79648   8.86299   9.10823  31.49314  42.25393
  Beta virt. eigenvalues --   42.30187  42.46539  49.27046  49.28855 183.55074
  Beta virt. eigenvalues --  978.80187
          Condensed to atoms (all electrons):
               1          2          3          4          5          6
     1  Cu  27.631880   0.004259   0.113339  -0.005436  -0.005507  -0.000322
     2  O    0.004259   7.981905   0.000000  -0.000001  -0.000001   0.228504
     3  O    0.113339   0.000000   8.321743   0.243442   0.243261   0.000000
     4  H   -0.005436  -0.000001   0.243442   0.194471  -0.008595   0.000000
     5  H   -0.005507  -0.000001   0.243261  -0.008595   0.193135   0.000000
     6  H   -0.000322   0.228504   0.000000   0.000000   0.000000   0.327938
     7  H   -0.000291   0.228494   0.000000   0.000000   0.000000  -0.030616
               7
     1  Cu  -0.000291
     2  O    0.228494
     3  O    0.000000
     4  H    0.000000
     5  H    0.000000
     6  H   -0.030616
     7  H    0.327871
          Atomic-Atomic Spin Densities.
               1          2          3          4          5          6
     1  Cu   0.441468  -0.000136  -0.007745   0.000083   0.000092   0.000018
     2  O   -0.000136   0.544373   0.000000   0.000000   0.000000  -0.006155
     3  O   -0.007745   0.000000   0.079063  -0.000660  -0.000665   0.000000
     4  H    0.000083   0.000000  -0.000660  -0.001750   0.000021   0.000000
     5  H    0.000092   0.000000  -0.000665   0.000021  -0.001748   0.000000
     6  H    0.000018  -0.006155   0.000000   0.000000   0.000000  -0.011636
     7  H   -0.000012  -0.006129   0.000000   0.000000   0.000000   0.002245
               7
     1  Cu  -0.000012
     2  O   -0.006129
     3  O    0.000000
     4  H    0.000000
     5  H    0.000000
     6  H    0.002245
     7  H   -0.011685
 Mulliken charges and spin densities:
               1          2
     1  Cu   1.262077   0.433768
     2  O   -0.443158   0.531953
     3  O   -0.921785   0.069993
     4  H    0.576120  -0.002306
     5  H    0.577707  -0.002299
     6  H    0.474497  -0.015528
     7  H    0.474542  -0.015581
 Sum of Mulliken charges =   2.00000   1.00000
 Mulliken charges and spin densities with hydrogens summed into heavy atoms:
               1          2
     1  Cu   1.262077   0.433768
     2  O    0.505881   0.500844
     3  O    0.232042   0.065388
 Electronic spatial extent (au):  <R**2>=            673.0049
 Charge=              2.0000 electrons
 Dipole moment (field-independent basis, Debye):
    X=              3.1534    Y=              1.6237    Z=              1.7807  Tot=              3.9688
 Quadrupole moment (field-independent basis, Debye-Ang):
   XX=             37.7635   YY=            -14.6460   ZZ=            -19.5447
   XY=              6.1186   XZ=              6.6462   YZ=             -0.0780
 Traceless Quadrupole moment (field-independent basis, Debye-Ang):
   XX=             36.5725   YY=            -15.8369   ZZ=            -20.7356
   XY=              6.1186   XZ=              6.6462   YZ=             -0.0780
 Octapole moment (field-independent basis, Debye-Ang**2):
  XXX=            107.4158  YYY=              1.9508  ZZZ=              1.5298  XYY=             -8.7965
  XXY=             23.7473  XXZ=             26.7561  XZZ=              3.8909  YZZ=              0.0170
  YYZ=              0.3039  XYZ=             -1.8322
 Hexadecapole moment (field-independent basis, Debye-Ang**3):
 XXXX=            147.2593 YYYY=            -10.8893 ZZZZ=            -13.4263 XXXY=             92.1143
 XXXZ=             99.6846 YYYX=              6.3288 YYYZ=              0.1415 ZZZX=              7.5208
 ZZZY=             -0.1696 XXYY=            -60.1001 XXZZ=            -94.0997 YYZZ=             -5.0525
 XXYZ=             -2.8092 YYXZ=              0.6226 ZZXY=              0.4387
 N-N= 1.442670913925D+02 E-N=-4.553648363144D+03  KE= 1.791577455925D+03
                          Isotropic Fermi Contact Couplings
        Atom                 a.u.       MegaHertz       Gauss      10(-4) cm-1
     1  Cu(63)            -0.13333    -158.14197     -56.42898     -52.75048
     2  O(17)              0.03478     -21.08322      -7.52302      -7.03261
     3  O(17)              0.01231      -7.46504      -2.66371      -2.49007
     4  H(1)              -0.00127      -5.66191      -2.02031      -1.88861
     5  H(1)              -0.00127      -5.66350      -2.02088      -1.88914
     6  H(1)              -0.00796     -35.55989     -12.68865     -11.86150
     7  H(1)              -0.00795     -35.54923     -12.68485     -11.85795
 --------------------------------------------------------
       Center         ----  Spin Dipole Couplings  ----
                      3XX-RR        3YY-RR        3ZZ-RR
 --------------------------------------------------------
     1   Atom        1.047911     -2.012727      0.964817
     2   Atom        1.296147     -0.686860     -0.609287
     3   Atom       -0.143796     -0.173897      0.317693
     4   Atom       -0.000305      0.009639     -0.009334
     5   Atom        0.000610      0.008715     -0.009325
     6   Atom       -0.015677      0.080090     -0.064413
     7   Atom       -0.015561     -0.064977      0.080538
 --------------------------------------------------------
                        XY            XZ            YZ
 --------------------------------------------------------
     1   Atom       -0.081891      0.163178     -0.132541
     2   Atom       -0.923568     -1.022231      0.380770
     3   Atom       -0.000066     -0.010285     -0.023468
     4   Atom       -0.012399     -0.000965      0.000899
     5   Atom        0.012776      0.000253      0.000895
     6   Atom        0.042374     -0.012267      0.009904
     7   Atom       -0.016381      0.041066     -0.004450
 --------------------------------------------------------


 ---------------------------------------------------------------------------------
              Anisotropic Spin Dipole Couplings in Principal Axis System
 ---------------------------------------------------------------------------------

       Atom             a.u.   MegaHertz   Gauss  10(-4) cm-1        Axes

              Baa    -2.0204  -286.056  -102.072   -95.418  0.0244  0.9988  0.0430
     1 Cu(63) Bbb     0.8390   118.786    42.386    39.623 -0.6200 -0.0187  0.7844
              Bcc     1.1814   167.270    59.686    55.795  0.7842 -0.0458  0.6188
 
              Baa    -1.0681    77.287    27.578    25.780  0.5035  0.5805  0.6400
     2 O(17)  Bbb    -1.0308    74.589    26.615    24.880 -0.0008  0.7410 -0.6715
              Bcc     2.0989  -151.876   -54.193   -50.660  0.8640 -0.3375 -0.3736
 
              Baa    -0.1750    12.665     4.519     4.224  0.0179  0.9987  0.0479
     3 O(17)  Bbb    -0.1440    10.421     3.718     3.476  0.9996 -0.0189  0.0213
              Bcc     0.3190   -23.085    -8.237    -7.700 -0.0222 -0.0475  0.9986
 
              Baa    -0.0095    -5.070    -1.809    -1.691  0.3078  0.1553  0.9387
     4 H(1)   Bbb    -0.0086    -4.580    -1.634    -1.528  0.7691  0.5402 -0.3415
              Bcc     0.0181     9.650     3.443     3.219 -0.5601  0.8271  0.0468
 
              Baa    -0.0095    -5.065    -1.807    -1.689  0.3026 -0.2575  0.9177
     5 H(1)   Bbb    -0.0086    -4.589    -1.637    -1.531  0.7485 -0.5318 -0.3961
              Bcc     0.0181     9.654     3.445     3.220  0.5900  0.8068  0.0318
 
              Baa    -0.0704   -37.545   -13.397   -12.524  0.3282 -0.1538  0.9320
     6 H(1)   Bbb    -0.0259   -13.836    -4.937    -4.615  0.8771 -0.3168 -0.3611
              Bcc     0.0963    51.381    18.334    17.139  0.3508  0.9359  0.0309
 
              Baa    -0.0704   -37.552   -13.399   -12.526  0.3277  0.9428 -0.0614
     7 H(1)   Bbb    -0.0259   -13.831    -4.935    -4.613  0.8768 -0.3277 -0.3519
              Bcc     0.0963    51.383    18.335    17.139  0.3519 -0.0615  0.9340
 

 ---------------------------------------------------------------------------------

 Calling FoFJK, ICntrl=      2127 FMM=F ISym2X=0 I1Cent= 0 IOpClX= 1 NMat=1 NMatS=1 NMatT=0.
 ***** Axes restored to original set *****
 -------------------------------------------------------------------
 Center     Atomic                   Forces (Hartrees/Bohr)
 Number     Number              X              Y              Z
 -------------------------------------------------------------------
      1       29          -0.002033805   -0.002669488    0.004540819
      2        8           0.005598616    0.005804401   -0.007973628
      3        8           0.000632729    0.001197872    0.083034137
      4        1           0.000010328   -0.000318769   -0.046682871
      5        1          -0.000458669   -0.000280049   -0.046526284
      6        1           0.045211538   -0.048932695    0.006787863
      7        1          -0.048960737    0.045198728    0.006819965
 -------------------------------------------------------------------
 Cartesian Forces:  Max     0.083034137 RMS     0.031146759

 GradGradGradGradGradGradGradGradGradGradGradGradGradGradGradGradGradGrad
 Berny optimization.
 FormGI is forming the generalized inverse of G from B-inverse, IUseBI=4.
 Internal  Forces:  Max     0.052493266 RMS     0.026514792
 Search for a local minimum.
 Step number   1 out of a maximum of  100 on scan point     1 out of    26
 All quantities printed in internal units (Hartrees-Bohrs-Radians)
 Mixed Optimization -- RFO/linear search
 Second derivative matrix not updated -- first step.
 The second derivative matrix:
                          R1        R2        R3        R4        R5
           R1           0.00858
           R2           0.00000   0.19001
           R3           0.00000   0.00000   0.57681
           R4           0.00000   0.00000   0.00000   0.57681
           R5           0.00000   0.00000   0.00000   0.00000   0.57681
           R6           0.00000   0.00000   0.00000   0.00000   0.00000
           A1           0.00000   0.00000   0.00000   0.00000   0.00000
           A2           0.00000   0.00000   0.00000   0.00000   0.00000
           A3           0.00000   0.00000   0.00000   0.00000   0.00000
           A4           0.00000   0.00000   0.00000   0.00000   0.00000
           A5           0.00000   0.00000   0.00000   0.00000   0.00000
           A6           0.00000   0.00000   0.00000   0.00000   0.00000
           A7           0.00000   0.00000   0.00000   0.00000   0.00000
           A8           0.00000   0.00000   0.00000   0.00000   0.00000
           D1           0.00000   0.00000   0.00000   0.00000   0.00000
           D2           0.00000   0.00000   0.00000   0.00000   0.00000
           D3           0.00000   0.00000   0.00000   0.00000   0.00000
           D4           0.00000   0.00000   0.00000   0.00000   0.00000
                          R6        A1        A2        A3        A4
           R6           0.57681
           A1           0.00000   0.16000
           A2           0.00000   0.00000   0.16000
           A3           0.00000   0.00000   0.00000   0.16000
           A4           0.00000   0.00000   0.00000   0.00000   0.16000
           A5           0.00000   0.00000   0.00000   0.00000   0.00000
           A6           0.00000   0.00000   0.00000   0.00000   0.00000
           A7           0.00000   0.00000   0.00000   0.00000   0.00000
           A8           0.00000   0.00000   0.00000   0.00000   0.00000
           D1           0.00000   0.00000   0.00000   0.00000   0.00000
           D2           0.00000   0.00000   0.00000   0.00000   0.00000
           D3           0.00000   0.00000   0.00000   0.00000   0.00000
           D4           0.00000   0.00000   0.00000   0.00000   0.00000
                          A5        A6        A7        A8        D1
           A5           0.16000
           A6           0.00000   0.16000
           A7           0.00000   0.00000   0.03612
           A8           0.00000   0.00000   0.00000   0.03612
           D1           0.00000   0.00000   0.00000   0.00000   0.00230
           D2           0.00000   0.00000   0.00000   0.00000   0.00000
           D3           0.00000   0.00000   0.00000   0.00000   0.00000
           D4           0.00000   0.00000   0.00000   0.00000   0.00000
                          D2        D3        D4
           D2           0.00230
           D3           0.00000   0.00230
           D4           0.00000   0.00000   0.00230
 ITU=  0
     Eigenvalues ---    0.00230   0.00230   0.03529   0.03612   0.06658
     Eigenvalues ---    0.16000   0.16000   0.16000   0.16000   0.19001
     Eigenvalues ---    0.57681   0.57681   0.57681   0.576811000.00000
     Eigenvalues --- 1000.000001000.000001000.00000
 RFO step:  Lambda=-5.66416785D-02 EMin= 2.30000000D-03
 Linear search not attempted -- first point.
 Maximum step size (   0.300) exceeded in Quadratic search.
    -- Step size scaled by   0.663
 Iteration  1 RMS(Cart)=  0.08033364 RMS(Int)=  0.00565640
 Iteration  2 RMS(Cart)=  0.00375113 RMS(Int)=  0.00097357
 Iteration  3 RMS(Cart)=  0.00002277 RMS(Int)=  0.00097331
 Iteration  4 RMS(Cart)=  0.00000004 RMS(Int)=  0.00097331
 Iteration  1 RMS(Cart)=  0.00000022 RMS(Int)=  0.00000000
 Variable       Old X    -DE/DX   Delta X   Delta X   Delta X     New X
                                 (Linear)    (Quad)   (Total)
    R1        7.34197   0.00563   0.00000   0.00000   0.00000   7.34197
    R2        3.56225   0.01017   0.00000   0.02736   0.02736   3.58961
    R3        1.79524   0.04490   0.00000   0.04702   0.04702   1.84226
    R4        1.79524   0.04490   0.00000   0.04702   0.04702   1.84226
    R5        1.79524   0.01556   0.00000   0.01630   0.01630   1.81154
    R6        1.79524   0.01595   0.00000   0.01670   0.01670   1.81194
    A1        1.91063  -0.00220   0.00000   0.01847   0.01730   1.92793
    A2        1.91063  -0.00214   0.00000   0.01866   0.01750   1.92813
    A3        1.45946   0.04228   0.00000   0.20922   0.20635   1.66581
    A4        1.91063   0.02652   0.00000   0.08121   0.08120   1.99183
    A5        1.91063   0.02597   0.00000   0.07953   0.07951   1.99015
    A6        2.46192  -0.05249   0.00000  -0.16074  -0.16075   2.30117
    A7        3.14159  -0.00523   0.00000  -0.01818  -0.01851   3.12308
    A8        3.14159   0.00268   0.00000   0.01191   0.01203   3.15362
    D1        0.00000  -0.02223   0.00000  -0.11911  -0.12033  -0.12033
    D2        3.14159  -0.02275   0.00000  -0.12499  -0.12622   3.01538
    D3        1.57080   0.02278   0.00000   0.12531   0.12654   1.69733
    D4       -1.57080   0.02226   0.00000   0.11943   0.12065  -1.45014
         Item               Value     Threshold  Converged?
 Maximum Force            0.052493     0.000450     NO 
 RMS     Force            0.027249     0.000300     NO 
 Maximum Displacement     0.143181     0.001800     NO 
 RMS     Displacement     0.080406     0.001200     NO 
 Predicted change in Energy=-2.943283D-02
 GradGradGradGradGradGradGradGradGradGradGradGradGradGradGradGradGradGrad

                          Input orientation:                          
 ---------------------------------------------------------------------
 Center     Atomic      Atomic             Coordinates (Angstroms)
 Number     Number       Type             X           Y           Z
 ---------------------------------------------------------------------
      1         29           0       -0.012570    0.005343    0.022974
      2          8           0        0.036161    0.034304    3.907764
      3          8           0       -0.001250   -0.000403   -1.876523
      4          1           0        0.875969   -0.004824   -2.263084
      5          1           0       -0.874656   -0.005819   -2.272127
      6          1           0        0.946772   -0.075768    4.238010
      7          1           0       -0.074757    0.942835    4.243411
 ---------------------------------------------------------------------
                    Distance matrix (angstroms):
                    1          2          3          4          5
     1  Cu   0.000000
     2  O    3.885203   0.000000
     3  O    1.899540   5.784512   0.000000
     4  H    2.452686   6.227854   0.958625   0.000000
     5  H    2.451695   6.246779   0.958837   1.750649   0.000000
     6  H    4.323591   0.974880   6.188048   6.501867   6.760501
     7  H    4.323754   0.974880   6.192632   6.643524   6.632648
                    6          7
     6  H    0.000000
     7  H    1.442603   0.000000
 Stoichiometry    CuH4O2(2+,2)
 Framework group  C1[X(CuH4O2)]
 Deg. of freedom    15
 Full point group                 C1      NOp   1
 Largest Abelian subgroup         C1      NOp   1
 Largest concise Abelian subgroup C1      NOp   1
                         Standard orientation:                         
 ---------------------------------------------------------------------
 Center     Atomic      Atomic             Coordinates (Angstroms)
 Number     Number       Type             X           Y           Z
 ---------------------------------------------------------------------
      1         29           0       -0.403734   -0.016769   -0.014553
      2          8           0        3.480755   -0.052342   -0.080025
      3          8           0       -2.302041    0.033978    0.031342
      4          1           0       -2.667210    0.908402    0.176243
      5          1           0       -2.718736   -0.819198   -0.102170
      6          1           0        3.830417    0.857268   -0.052886
      7          1           0        3.834090   -0.313255    0.790302
 ---------------------------------------------------------------------
 Rotational constants (GHZ):    158.4770039      1.5146721      1.5072826
 Standard basis: 6-311G(d) (5D, 7F)
 There are   102 symmetry adapted cartesian basis functions of A   symmetry.
 There are    94 symmetry adapted basis functions of A   symmetry.
    94 basis functions,   165 primitive gaussians,   102 cartesian basis functions
    24 alpha electrons       23 beta electrons
       nuclear repulsion energy       142.9295757691 Hartrees.
 NAtoms=    7 NActive=    7 NUniq=    7 SFac= 1.00D+00 NAtFMM=   60 NAOKFM=F Big=F
 Integral buffers will be    131072 words long.
 Raffenetti 2 integral format.
 Two-electron integral symmetry is turned on.
 One-electron integrals computed using PRISM.
 NBasis=    94 RedAO= T EigKep=  9.37D-03  NBF=    94
 NBsUse=    94 1.00D-06 EigRej= -1.00D+00 NBFU=    94
 Initial guess from the checkpoint file:  "pescuh2o2.chk"
 B after Tr=     0.000000    0.000000    0.000000
         Rot=    0.998512   -0.054531   -0.000044    0.000084 Ang=  -6.25 deg.
 Initial guess <Sx>= 0.0000 <Sy>= 0.0000 <Sz>= 0.5000 <S**2>= 0.7529 S= 0.5015
 ExpMin= 4.08D-02 ExpMax= 3.37D+05 ExpMxC= 1.14D+04 IAcc=2 IRadAn=         4 AccDes= 0.00D+00
 Harris functional with IExCor=  402 and IRadAn=       4 diagonalized for initial guess.
 HarFok:  IExCor=  402 AccDes= 0.00D+00 IRadAn=         4 IDoV= 1 UseB2=F ITyADJ=14
 ICtDFT=  3500011 ScaDFX=  1.000000  1.000000  1.000000  1.000000
 FoFCou: FMM=F IPFlag=           0 FMFlag=      100000 FMFlg1=           0
         NFxFlg=           0 DoJE=T BraDBF=F KetDBF=T FulRan=T
         wScrn=  0.000000 ICntrl=     500 IOpCl=  0 I1Cent=   200000004 NGrid=           0
         NMat0=    1 NMatS0=      1 NMatT0=    0 NMatD0=    1 NMtDS0=    0 NMtDT0=    0
 Petite list used in FoFCou.
 Keep R1 and R2 ints in memory in canonical form, NReq=21960593.
 Requested convergence on RMS density matrix=1.00D-08 within  64 cycles.
 Requested convergence on MAX density matrix=1.00D-06.
 Requested convergence on             energy=1.00D-06.
 No special actions if energy rises.
 SCF Done:  E(UB3LYP) =  -1792.51761989     A.U. after   23 cycles
            NFock= 23  Conv=0.25D-08     -V/T= 2.0006
 <Sx>= 0.0000 <Sy>= 0.0000 <Sz>= 0.5000 <S**2>= 0.7529 S= 0.5015
 <L.S>= 0.000000000000E+00
 Annihilation of the first spin contaminant:
 S**2 before annihilation     0.7529,   after     0.7500
 QCSCF skips out because SCF is already converged.
 Calling FoFJK, ICntrl=      2127 FMM=F ISym2X=0 I1Cent= 0 IOpClX= 1 NMat=1 NMatS=1 NMatT=0.
 ***** Axes restored to original set *****
 -------------------------------------------------------------------
 Center     Atomic                   Forces (Hartrees/Bohr)
 Number     Number              X              Y              Z
 -------------------------------------------------------------------
      1       29          -0.001959816   -0.002441510   -0.001788407
      2        8           0.016988886    0.017209694    0.001552007
      3        8           0.000035197    0.001536829    0.064663340
      4        1          -0.007153340   -0.000542820   -0.034251497
      5        1           0.007331834   -0.000487366   -0.034015054
      6        1           0.008580745   -0.023774688    0.001822158
      7        1          -0.023823506    0.008499863    0.002017452
 -------------------------------------------------------------------
 Cartesian Forces:  Max     0.064663340 RMS     0.020125351

 GradGradGradGradGradGradGradGradGradGradGradGradGradGradGradGradGradGrad
 Berny optimization.
 Using GEDIIS/GDIIS optimizer.
 FormGI is forming the generalized inverse of G from B-inverse, IUseBI=4.
 Internal  Forces:  Max     0.041208254 RMS     0.014660498
 Search for a local minimum.
 Step number   2 out of a maximum of  100 on scan point     1 out of    26
 All quantities printed in internal units (Hartrees-Bohrs-Radians)
 Mixed Optimization -- RFO/linear search
 Update second derivatives using D2CorX and points    1    2
 DE= -2.91D-02 DEPred=-2.94D-02 R= 9.90D-01
 TightC=F SS=  1.41D+00  RLast= 3.86D-01 DXNew= 5.0454D-01 1.1585D+00
 Trust test= 9.90D-01 RLast= 3.86D-01 DXMaxT set to 5.05D-01
 The second derivative matrix:
                          R1        R2        R3        R4        R5
           R1           0.00858
           R2           0.00008   0.19096
           R3           0.00043   0.00469   0.59994
           R4           0.00043   0.00469   0.02311   0.59991
           R5           0.00011   0.00030   0.00122   0.00122   0.57555
           R6           0.00011   0.00034   0.00141   0.00140  -0.00125
           A1          -0.00007  -0.00300  -0.01544  -0.01544  -0.00427
           A2          -0.00007  -0.00305  -0.01568  -0.01568  -0.00434
           A3           0.00031  -0.00090  -0.00566  -0.00567  -0.00687
           A4           0.00007  -0.00187  -0.01000  -0.01000  -0.00463
           A5           0.00007  -0.00185  -0.00987  -0.00987  -0.00455
           A6          -0.00015   0.00373   0.01989   0.01990   0.00918
           A7          -0.00002  -0.00052  -0.00262  -0.00262  -0.00054
           A8           0.00001   0.00019   0.00096   0.00096   0.00017
           D1          -0.00014  -0.00413  -0.02113  -0.02113  -0.00518
           D2          -0.00014  -0.00421  -0.02153  -0.02153  -0.00527
           D3           0.00014   0.00422   0.02158   0.02158   0.00529
           D4           0.00014   0.00414   0.02118   0.02118   0.00519
                          R6        A1        A2        A3        A4
           R6           0.57557
           A1          -0.00441   0.16124
           A2          -0.00447   0.00127   0.16129
           A3          -0.00693  -0.01344  -0.01364   0.12868
           A4          -0.00471  -0.00406  -0.00411  -0.01794   0.15162
           A5          -0.00463  -0.00396  -0.00402  -0.01762  -0.00822
           A6           0.00935   0.00801   0.00813   0.03558   0.01662
           A7          -0.00056   0.00070   0.00072  -0.00134  -0.00010
           A8           0.00017  -0.00034  -0.00035   0.00033  -0.00006
           D1          -0.00536   0.00347   0.00353  -0.01504  -0.00346
           D2          -0.00545   0.00354   0.00360  -0.01532  -0.00352
           D3           0.00547  -0.00355  -0.00361   0.01535   0.00353
           D4           0.00537  -0.00348  -0.00354   0.01508   0.00347
                          A5        A6        A7        A8        D1
           A5           0.15193
           A6           0.01630   0.12707
           A7          -0.00010   0.00020   0.03629
           A8          -0.00006   0.00012  -0.00007   0.03615
           D1          -0.00337   0.00682   0.00117  -0.00052   0.00912
           D2          -0.00342   0.00694   0.00119  -0.00053   0.00695
           D3           0.00343  -0.00696  -0.00119   0.00054  -0.00697
           D4           0.00337  -0.00684  -0.00117   0.00053  -0.00684
                          D2        D3        D4
           D2           0.00939
           D3          -0.00711   0.00942
           D4          -0.00697   0.00699   0.00915
 ITU=  1  0
 Use linear search instead of GDIIS.
     Eigenvalues ---    0.00230   0.00231   0.03525   0.03612   0.07594
     Eigenvalues ---    0.10922   0.16000   0.16000   0.17215   0.19204
     Eigenvalues ---    0.57459   0.57681   0.57681   0.629481000.00000
     Eigenvalues --- 1000.000001000.000001000.00000
 RFO step:  Lambda=-1.45332968D-02 EMin= 2.30000384D-03
 Quartic linear search produced a step of  1.50697.
 Iteration  1 RMS(Cart)=  0.12670571 RMS(Int)=  0.05909966
 Iteration  2 RMS(Cart)=  0.05032540 RMS(Int)=  0.01000917
 Iteration  3 RMS(Cart)=  0.00260581 RMS(Int)=  0.00961829
 Iteration  4 RMS(Cart)=  0.00000339 RMS(Int)=  0.00961829
 Iteration  5 RMS(Cart)=  0.00000010 RMS(Int)=  0.00961829
 Iteration  1 RMS(Cart)=  0.00000992 RMS(Int)=  0.00000001
 Iteration  2 RMS(Cart)=  0.00000000 RMS(Int)=  0.00000001
 Variable       Old X    -DE/DX   Delta X   Delta X   Delta X     New X
                                 (Linear)    (Quad)   (Total)
    R1        7.34197   0.00542   0.00000   0.00000   0.00000   7.34197
    R2        3.58961   0.00361   0.04123  -0.01860   0.02269   3.61230
    R3        1.84226   0.01133   0.07085  -0.04871   0.02214   1.86440
    R4        1.84226   0.01133   0.07085  -0.04867   0.02218   1.86443
    R5        1.81154   0.00727   0.02456  -0.00297   0.02161   1.83315
    R6        1.81194   0.00737   0.02517  -0.00337   0.02180   1.83374
    A1        1.92793   0.00312   0.02607   0.06455   0.07325   2.00118
    A2        1.92813   0.00327   0.02637   0.06636   0.07567   2.00380
    A3        1.66581   0.01803   0.31096  -0.02784   0.25631   1.92211
    A4        1.99183   0.02080   0.12236   0.10440   0.22660   2.21843
    A5        1.99015   0.02040   0.11982   0.10275   0.22246   2.21261
    A6        2.30117  -0.04121  -0.24224  -0.20729  -0.44964   1.85153
    A7        3.12308  -0.00340  -0.02790  -0.03212  -0.06362   3.05946
    A8        3.15362   0.00185   0.01813   0.02294   0.04226   3.19589
    D1       -0.12033  -0.01162  -0.18134  -0.00798  -0.19863  -0.31896
    D2        3.01538  -0.01194  -0.19021  -0.01776  -0.21716   2.79821
    D3        1.69733   0.01194   0.19069   0.01619   0.21597   1.91330
    D4       -1.45014   0.01162   0.18182   0.00641   0.19743  -1.25271
         Item               Value     Threshold  Converged?
 Maximum Force            0.041208     0.000450     NO 
 RMS     Force            0.015028     0.000300     NO 
 Maximum Displacement     0.332832     0.001800     NO 
 RMS     Displacement     0.161397     0.001200     NO 
 Predicted change in Energy=-1.948953D-02
 GradGradGradGradGradGradGradGradGradGradGradGradGradGradGradGradGradGrad

                          Input orientation:                          
 ---------------------------------------------------------------------
 Center     Atomic      Atomic             Coordinates (Angstroms)
 Number     Number       Type             X           Y           Z
 ---------------------------------------------------------------------
      1         29           0       -0.069039    0.015287    0.068055
      2          8           0        0.122388    0.116303    3.947224
      3          8           0       -0.006585    0.001461   -1.842419
      4          1           0        0.785635   -0.016664   -2.401956
      5          1           0       -0.764231   -0.022231   -2.448254
      6          1           0        0.988722   -0.167905    4.324143
      7          1           0       -0.161221    0.969418    4.353633
 ---------------------------------------------------------------------
                    Distance matrix (angstroms):
                    1          2          3          4          5
     1  Cu   0.000000
     2  O    3.885203   0.000000
     3  O    1.911545   5.792219   0.000000
     4  H    2.613894   6.385113   0.970063   0.000000
     5  H    2.610845   6.458129   0.970373   1.550566   0.000000
     6  H    4.389385   0.986598   6.248665   6.730864   6.997101
     7  H    4.391474   0.986615   6.273111   6.892524   6.900193
                    6          7
     6  H    0.000000
     7  H    1.617635   0.000000
 Stoichiometry    CuH4O2(2+,2)
 Framework group  C1[X(CuH4O2)]
 Deg. of freedom    15
 Full point group                 C1      NOp   1
 Largest Abelian subgroup         C1      NOp   1
 Largest concise Abelian subgroup C1      NOp   1
                         Standard orientation:                         
 ---------------------------------------------------------------------
 Center     Atomic      Atomic             Coordinates (Angstroms)
 Number     Number       Type             X           Y           Z
 ---------------------------------------------------------------------
      1         29           0       -0.396942   -0.041996   -0.029251
      2          8           0        3.487985    0.002033   -0.043594
      3          8           0       -2.302874    0.075340    0.058274
      4          1           0       -2.830941    0.852825    0.298447
      5          1           0       -2.938644   -0.624058   -0.161413
      6          1           0        3.889316    0.902733   -0.075964
      7          1           0        3.910693   -0.532588    0.669783
 ---------------------------------------------------------------------
 Rotational constants (GHZ):    161.9740388      1.4982281      1.4905530
 Standard basis: 6-311G(d) (5D, 7F)
 There are   102 symmetry adapted cartesian basis functions of A   symmetry.
 There are    94 symmetry adapted basis functions of A   symmetry.
    94 basis functions,   165 primitive gaussians,   102 cartesian basis functions
    24 alpha electrons       23 beta electrons
       nuclear repulsion energy       141.3663321031 Hartrees.
 NAtoms=    7 NActive=    7 NUniq=    7 SFac= 1.00D+00 NAtFMM=   60 NAOKFM=F Big=F
 Integral buffers will be    131072 words long.
 Raffenetti 2 integral format.
 Two-electron integral symmetry is turned on.
 One-electron integrals computed using PRISM.
 NBasis=    94 RedAO= T EigKep=  9.37D-03  NBF=    94
 NBsUse=    94 1.00D-06 EigRej= -1.00D+00 NBFU=    94
 Initial guess from the checkpoint file:  "pescuh2o2.chk"
 B after Tr=     0.000000    0.000000    0.000000
         Rot=    0.997736   -0.067255   -0.000187    0.000134 Ang=  -7.71 deg.
 Initial guess <Sx>= 0.0000 <Sy>= 0.0000 <Sz>= 0.5000 <S**2>= 0.7529 S= 0.5015
 ExpMin= 4.08D-02 ExpMax= 3.37D+05 ExpMxC= 1.14D+04 IAcc=2 IRadAn=         4 AccDes= 0.00D+00
 Harris functional with IExCor=  402 and IRadAn=       4 diagonalized for initial guess.
 HarFok:  IExCor=  402 AccDes= 0.00D+00 IRadAn=         4 IDoV= 1 UseB2=F ITyADJ=14
 ICtDFT=  3500011 ScaDFX=  1.000000  1.000000  1.000000  1.000000
 FoFCou: FMM=F IPFlag=           0 FMFlag=      100000 FMFlg1=           0
         NFxFlg=           0 DoJE=T BraDBF=F KetDBF=T FulRan=T
         wScrn=  0.000000 ICntrl=     500 IOpCl=  0 I1Cent=   200000004 NGrid=           0
         NMat0=    1 NMatS0=      1 NMatT0=    0 NMatD0=    1 NMtDS0=    0 NMtDT0=    0
 Petite list used in FoFCou.
 Keep R1 and R2 ints in memory in canonical form, NReq=21960494.
 Requested convergence on RMS density matrix=1.00D-08 within  64 cycles.
 Requested convergence on MAX density matrix=1.00D-06.
 Requested convergence on             energy=1.00D-06.
 No special actions if energy rises.
 SCF Done:  E(UB3LYP) =  -1792.53917126     A.U. after   26 cycles
            NFock= 26  Conv=0.17D-08     -V/T= 2.0007
 <Sx>= 0.0000 <Sy>= 0.0000 <Sz>= 0.5000 <S**2>= 0.7527 S= 0.5014
 <L.S>= 0.000000000000E+00
 Annihilation of the first spin contaminant:
 S**2 before annihilation     0.7527,   after     0.7500
 QCSCF skips out because SCF is already converged.
 Calling FoFJK, ICntrl=      2127 FMM=F ISym2X=0 I1Cent= 0 IOpClX= 1 NMat=1 NMatS=1 NMatT=0.
 ***** Axes restored to original set *****
 -------------------------------------------------------------------
 Center     Atomic                   Forces (Hartrees/Bohr)
 Number     Number              X              Y              Z
 -------------------------------------------------------------------
      1       29          -0.001617807   -0.001932087   -0.008462201
      2        8           0.006604863    0.006927801   -0.004572583
      3        8           0.000267425    0.000171339    0.000096988
      4        1           0.004265988    0.000094268    0.001938348
      5        1          -0.004332425    0.000172819    0.001820140
      6        1          -0.008157136    0.002812354    0.004730949
      7        1           0.002969093   -0.008246494    0.004448358
 -------------------------------------------------------------------
 Cartesian Forces:  Max     0.008462201 RMS     0.004515118

 GradGradGradGradGradGradGradGradGradGradGradGradGradGradGradGradGradGrad
 Berny optimization.
 Using GEDIIS/GDIIS optimizer.
 FormGI is forming the generalized inverse of G from B-inverse, IUseBI=4.
 Internal  Forces:  Max     0.009351544 RMS     0.004886591
 Search for a local minimum.
 Step number   3 out of a maximum of  100 on scan point     1 out of    26
 All quantities printed in internal units (Hartrees-Bohrs-Radians)
 Mixed Optimization -- RFO/linear search
 Update second derivatives using D2CorX and points    2    3
 DE= -2.16D-02 DEPred=-1.95D-02 R= 1.11D+00
 TightC=F SS=  1.41D+00  RLast= 7.49D-01 DXNew= 8.4853D-01 2.2456D+00
 Trust test= 1.11D+00 RLast= 7.49D-01 DXMaxT set to 8.49D-01
 The second derivative matrix:
                          R1        R2        R3        R4        R5
           R1           0.00859
           R2           0.00017   0.19169
           R3           0.00062   0.00608   0.60219
           R4           0.00062   0.00608   0.02536   0.60216
           R5           0.00013   0.00028   0.00061   0.00060   0.57468
           R6           0.00014   0.00033   0.00083   0.00083  -0.00212
           A1          -0.00016  -0.00392  -0.01752  -0.01752  -0.00479
           A2          -0.00016  -0.00398  -0.01781  -0.01781  -0.00488
           A3           0.00060   0.00141  -0.00155  -0.00155  -0.00734
           A4           0.00030  -0.00029  -0.00778  -0.00777  -0.00587
           A5           0.00030  -0.00025  -0.00759  -0.00759  -0.00574
           A6          -0.00060   0.00055   0.01541   0.01540   0.01163
           A7          -0.00003  -0.00040  -0.00209  -0.00209  -0.00007
           A8           0.00001   0.00016   0.00075   0.00075  -0.00006
           D1          -0.00018  -0.00400  -0.01978  -0.01978  -0.00349
           D2          -0.00018  -0.00414  -0.02029  -0.02029  -0.00359
           D3           0.00019   0.00415   0.02034   0.02033   0.00360
           D4           0.00018   0.00401   0.01983   0.01982   0.00350
                          R6        A1        A2        A3        A4
           R6           0.57470
           A1          -0.00494   0.16205
           A2          -0.00504   0.00207   0.16210
           A3          -0.00733  -0.01656  -0.01682   0.13578
           A4          -0.00591  -0.00678  -0.00691  -0.01347   0.15343
           A5          -0.00578  -0.00667  -0.00679  -0.01309  -0.00632
           A6           0.01171   0.01345   0.01370   0.02661   0.01293
           A7          -0.00008   0.00086   0.00088  -0.00077   0.00079
           A8          -0.00005  -0.00044  -0.00046   0.00014  -0.00044
           D1          -0.00367   0.00436   0.00448  -0.01388  -0.00087
           D2          -0.00377   0.00450   0.00462  -0.01433  -0.00106
           D3           0.00378  -0.00451  -0.00463   0.01436   0.00106
           D4           0.00367  -0.00437  -0.00449   0.01391   0.00087
                          A5        A6        A7        A8        D1
           A5           0.15394
           A6           0.01242   0.13457
           A7           0.00077  -0.00157   0.03605
           A8          -0.00042   0.00086   0.00004   0.03609
           D1          -0.00087   0.00171   0.00027  -0.00009   0.00586
           D2          -0.00106   0.00209   0.00028  -0.00010   0.00369
           D3           0.00106  -0.00209  -0.00029   0.00010  -0.00370
           D4           0.00087  -0.00171  -0.00027   0.00009  -0.00357
                          D2        D3        D4
           D2           0.00613
           D3          -0.00384   0.00615
           D4          -0.00370   0.00371   0.00587
 ITU=  1  1  0
 Use linear search instead of GDIIS.
     Eigenvalues ---    0.00230   0.00234   0.03372   0.03611   0.04438
     Eigenvalues ---    0.12139   0.16000   0.16000   0.17465   0.19327
     Eigenvalues ---    0.57335   0.57681   0.57681   0.633481000.00000
     Eigenvalues --- 1000.000001000.000001000.00000
 RFO step:  Lambda=-3.11833977D-03 EMin= 2.30004306D-03
 Quartic linear search produced a step of -0.03611.
 Iteration  1 RMS(Cart)=  0.04355140 RMS(Int)=  0.00512561
 Iteration  2 RMS(Cart)=  0.00409018 RMS(Int)=  0.00326907
 Iteration  3 RMS(Cart)=  0.00001253 RMS(Int)=  0.00326905
 Iteration  4 RMS(Cart)=  0.00000008 RMS(Int)=  0.00326905
 Iteration  1 RMS(Cart)=  0.00000398 RMS(Int)=  0.00000000
 Iteration  2 RMS(Cart)=  0.00000000 RMS(Int)=  0.00000000
 Variable       Old X    -DE/DX   Delta X   Delta X   Delta X     New X
                                 (Linear)    (Quad)   (Total)
    R1        7.34197   0.00470   0.00000   0.00000   0.00000   7.34197
    R2        3.61230  -0.00384  -0.00082  -0.02085  -0.02165   3.59065
    R3        1.86440  -0.00614  -0.00080  -0.01454  -0.01534   1.84906
    R4        1.86443  -0.00615  -0.00080  -0.01455  -0.01535   1.84908
    R5        1.83315   0.00236  -0.00078   0.00351   0.00274   1.83589
    R6        1.83374   0.00226  -0.00079   0.00333   0.00254   1.83628
    A1        2.00118   0.00923  -0.00265   0.09206   0.08259   2.08377
    A2        2.00380   0.00935  -0.00273   0.09229   0.08282   2.08662
    A3        1.92211  -0.00777  -0.00926  -0.00077  -0.01879   1.90333
    A4        2.21843  -0.00240  -0.00818  -0.00596  -0.01422   2.20421
    A5        2.21261  -0.00261  -0.00803  -0.00744  -0.01553   2.19708
    A6        1.85153   0.00501   0.01624   0.01405   0.03023   1.88177
    A7        3.05946  -0.00176   0.00230  -0.01921  -0.01809   3.04137
    A8        3.19589   0.00083  -0.00153   0.01382   0.01269   3.20857
    D1       -0.31896  -0.00295   0.00717  -0.09559  -0.09079  -0.40976
    D2        2.79821  -0.00273   0.00784  -0.06593  -0.06043   2.73779
    D3        1.91330   0.00272  -0.00780   0.07106   0.06556   1.97886
    D4       -1.25271   0.00294  -0.00713   0.10072   0.09593  -1.15678
         Item               Value     Threshold  Converged?
 Maximum Force            0.009353     0.000450     NO 
 RMS     Force            0.004898     0.000300     NO 
 Maximum Displacement     0.074235     0.001800     NO 
 RMS     Displacement     0.042255     0.001200     NO 
 Predicted change in Energy=-1.825496D-03
 GradGradGradGradGradGradGradGradGradGradGradGradGradGradGradGradGradGrad

                          Input orientation:                          
 ---------------------------------------------------------------------
 Center     Atomic      Atomic             Coordinates (Angstroms)
 Number     Number       Type             X           Y           Z
 ---------------------------------------------------------------------
      1         29           0       -0.079996    0.014031    0.042216
      2          8           0        0.159810    0.154398    3.917470
      3          8           0       -0.008187   -0.005608   -1.856415
      4          1           0        0.796018   -0.016467   -2.401365
      5          1           0       -0.773332   -0.021622   -2.455190
      6          1           0        0.967942   -0.173944    4.360794
      7          1           0       -0.166585    0.944881    4.392917
 ---------------------------------------------------------------------
                    Distance matrix (angstroms):
                    1          2          3          4          5
     1  Cu   0.000000
     2  O    3.885203   0.000000
     3  O    1.900090   5.778544   0.000000
     4  H    2.596039   6.353080   0.971511   0.000000
     5  H    2.592108   6.443022   0.971717   1.570281   0.000000
     6  H    4.447879   0.978480   6.295622   6.766177   7.036539
     7  H    4.450009   0.978492   6.323185   6.929146   6.942538
                    6          7
     6  H    0.000000
     7  H    1.593723   0.000000
 Stoichiometry    CuH4O2(2+,2)
 Framework group  C1[X(CuH4O2)]
 Deg. of freedom    15
 Full point group                 C1      NOp   1
 Largest Abelian subgroup         C1      NOp   1
 Largest concise Abelian subgroup C1      NOp   1
                         Standard orientation:                         
 ---------------------------------------------------------------------
 Center     Atomic      Atomic             Coordinates (Angstroms)
 Number     Number       Type             X           Y           Z
 ---------------------------------------------------------------------
      1         29           0       -0.402767   -0.048490   -0.033215
      2          8           0        3.481914    0.014633   -0.024753
      3          8           0       -2.295493    0.087825    0.063474
      4          1           0       -2.803256    0.878884    0.308903
      5          1           0       -2.928669   -0.620837   -0.139304
      6          1           0        3.948552    0.868002   -0.131681
      7          1           0        3.972231   -0.539497    0.615542
 ---------------------------------------------------------------------
 Rotational constants (GHZ):    161.3296604      1.4993686      1.4911901
 Standard basis: 6-311G(d) (5D, 7F)
 There are   102 symmetry adapted cartesian basis functions of A   symmetry.
 There are    94 symmetry adapted basis functions of A   symmetry.
    94 basis functions,   165 primitive gaussians,   102 cartesian basis functions
    24 alpha electrons       23 beta electrons
       nuclear repulsion energy       141.8103494879 Hartrees.
 NAtoms=    7 NActive=    7 NUniq=    7 SFac= 1.00D+00 NAtFMM=   60 NAOKFM=F Big=F
 Integral buffers will be    131072 words long.
 Raffenetti 2 integral format.
 Two-electron integral symmetry is turned on.
 One-electron integrals computed using PRISM.
 NBasis=    94 RedAO= T EigKep=  9.37D-03  NBF=    94
 NBsUse=    94 1.00D-06 EigRej= -1.00D+00 NBFU=    94
 Initial guess from the checkpoint file:  "pescuh2o2.chk"
 B after Tr=     0.000000    0.000000    0.000000
         Rot=    0.999987    0.005169   -0.000265    0.000254 Ang=   0.59 deg.
 Initial guess <Sx>= 0.0000 <Sy>= 0.0000 <Sz>= 0.5000 <S**2>= 0.7527 S= 0.5013
 ExpMin= 4.08D-02 ExpMax= 3.37D+05 ExpMxC= 1.14D+04 IAcc=2 IRadAn=         4 AccDes= 0.00D+00
 Harris functional with IExCor=  402 and IRadAn=       4 diagonalized for initial guess.
 HarFok:  IExCor=  402 AccDes= 0.00D+00 IRadAn=         4 IDoV= 1 UseB2=F ITyADJ=14
 ICtDFT=  3500011 ScaDFX=  1.000000  1.000000  1.000000  1.000000
 FoFCou: FMM=F IPFlag=           0 FMFlag=      100000 FMFlg1=           0
         NFxFlg=           0 DoJE=T BraDBF=F KetDBF=T FulRan=T
         wScrn=  0.000000 ICntrl=     500 IOpCl=  0 I1Cent=   200000004 NGrid=           0
         NMat0=    1 NMatS0=      1 NMatT0=    0 NMatD0=    1 NMtDS0=    0 NMtDT0=    0
 Petite list used in FoFCou.
 Keep R1 and R2 ints in memory in canonical form, NReq=21960509.
 Requested convergence on RMS density matrix=1.00D-08 within  64 cycles.
 Requested convergence on MAX density matrix=1.00D-06.
 Requested convergence on             energy=1.00D-06.
 No special actions if energy rises.
 SCF Done:  E(UB3LYP) =  -1792.54173594     A.U. after   23 cycles
            NFock= 23  Conv=0.71D-08     -V/T= 2.0007
 <Sx>= 0.0000 <Sy>= 0.0000 <Sz>= 0.5000 <S**2>= 0.7525 S= 0.5012
 <L.S>= 0.000000000000E+00
 Annihilation of the first spin contaminant:
 S**2 before annihilation     0.7525,   after     0.7500
 QCSCF skips out because SCF is already converged.
 Calling FoFJK, ICntrl=      2127 FMM=F ISym2X=0 I1Cent= 0 IOpClX= 1 NMat=1 NMatS=1 NMatT=0.
 ***** Axes restored to original set *****
 -------------------------------------------------------------------
 Center     Atomic                   Forces (Hartrees/Bohr)
 Number     Number              X              Y              Z
 -------------------------------------------------------------------
      1       29          -0.001406325   -0.001631409   -0.005425890
      2        8           0.003344588    0.003676612   -0.006344042
      3        8           0.000284465    0.000540721    0.000493628
      4        1           0.000835746   -0.000092135    0.000430292
      5        1          -0.000850148    0.000003290    0.000389996
      6        1          -0.001595368   -0.000734314    0.005241351
      7        1          -0.000612958   -0.001762765    0.005214665
 -------------------------------------------------------------------
 Cartesian Forces:  Max     0.006344042 RMS     0.002782993

 GradGradGradGradGradGradGradGradGradGradGradGradGradGradGradGradGradGrad
 Berny optimization.
 Using GEDIIS/GDIIS optimizer.
 FormGI is forming the generalized inverse of G from B-inverse, IUseBI=4.
 Internal  Forces:  Max     0.005528720 RMS     0.002856411
 Search for a local minimum.
 Step number   4 out of a maximum of  100 on scan point     1 out of    26
 All quantities printed in internal units (Hartrees-Bohrs-Radians)
 Mixed Optimization -- RFO/linear search
 Update second derivatives using D2CorX and points    3    4
 DE= -2.56D-03 DEPred=-1.83D-03 R= 1.40D+00
 TightC=F SS=  1.41D+00  RLast= 2.05D-01 DXNew= 1.4270D+00 6.1647D-01
 Trust test= 1.40D+00 RLast= 2.05D-01 DXMaxT set to 8.49D-01
 The second derivative matrix:
                          R1        R2        R3        R4        R5
           R1           0.00879
           R2          -0.00093   0.19185
           R3          -0.00256   0.01398   0.63666
           R4          -0.00256   0.01396   0.05980   0.63657
           R5           0.00096  -0.00023  -0.00591  -0.00590   0.57532
           R6           0.00092  -0.00008  -0.00524  -0.00523  -0.00156
           A1           0.00159   0.00737  -0.01182  -0.01178  -0.01183
           A2           0.00159   0.00735  -0.01204  -0.01200  -0.01195
           A3          -0.00044   0.00717   0.01476   0.01475  -0.01163
           A4          -0.00052   0.00085  -0.00029  -0.00030  -0.00694
           A5          -0.00059   0.00086   0.00030   0.00029  -0.00682
           A6           0.00111  -0.00158   0.00021   0.00022   0.01369
           A7           0.00011  -0.00195  -0.00548  -0.00548   0.00104
           A8          -0.00003   0.00102   0.00243   0.00243  -0.00066
           D1          -0.00027  -0.00293  -0.01744  -0.01744  -0.00425
           D2          -0.00018  -0.00341  -0.01914  -0.01914  -0.00408
           D3           0.00019   0.00340   0.01911   0.01911   0.00410
           D4           0.00028   0.00292   0.01741   0.01741   0.00427
                          R6        A1        A2        A3        A4
           R6           0.57520
           A1          -0.01185   0.10264
           A2          -0.01197  -0.05750   0.10237
           A3          -0.01139  -0.02608  -0.02634   0.14102
           A4          -0.00688  -0.00200  -0.00211  -0.00921   0.15485
           A5          -0.00676  -0.00117  -0.00127  -0.00851  -0.00485
           A6           0.01359   0.00274   0.00295   0.01776   0.01011
           A7           0.00097   0.00498   0.00501  -0.00142  -0.00022
           A8          -0.00063  -0.00305  -0.00306   0.00035   0.00010
           D1          -0.00439   0.00152   0.00163  -0.01342  -0.00017
           D2          -0.00425   0.00188   0.00199  -0.01436  -0.00064
           D3           0.00427  -0.00189  -0.00201   0.01435   0.00063
           D4           0.00442  -0.00153  -0.00164   0.01342   0.00015
                          A5        A6        A7        A8        D1
           A5           0.15545
           A6           0.00951   0.14017
           A7          -0.00033   0.00056   0.03602
           A8           0.00016  -0.00027   0.00010   0.03603
           D1          -0.00011   0.00024   0.00029  -0.00013   0.00584
           D2          -0.00060   0.00120   0.00039  -0.00018   0.00362
           D3           0.00058  -0.00117  -0.00038   0.00017  -0.00363
           D4           0.00009  -0.00020  -0.00028   0.00013  -0.00356
                          D2        D3        D4
           D2           0.00604
           D3          -0.00375   0.00606
           D4          -0.00363   0.00364   0.00587
 ITU=  1  1  1  0
 Use linear search instead of GDIIS.
     Eigenvalues ---    0.00230   0.00232   0.01564   0.03445   0.03614
     Eigenvalues ---    0.12147   0.15124   0.16000   0.16002   0.19167
     Eigenvalues ---    0.57416   0.57681   0.57681   0.703631000.00000
     Eigenvalues --- 1000.000001000.000001000.00000
 RFO step:  Lambda=-1.00033725D-03 EMin= 2.30025988D-03
 Quartic linear search produced a step of  1.16429.
 Iteration  1 RMS(Cart)=  0.08173846 RMS(Int)=  0.01761934
 Iteration  2 RMS(Cart)=  0.01260316 RMS(Int)=  0.01357582
 Iteration  3 RMS(Cart)=  0.00009786 RMS(Int)=  0.01357545
 Iteration  4 RMS(Cart)=  0.00000200 RMS(Int)=  0.01357545
 Iteration  5 RMS(Cart)=  0.00000006 RMS(Int)=  0.01357545
 Iteration  1 RMS(Cart)=  0.00001825 RMS(Int)=  0.00000001
 Iteration  2 RMS(Cart)=  0.00000000 RMS(Int)=  0.00000001
 Variable       Old X    -DE/DX   Delta X   Delta X   Delta X     New X
                                 (Linear)    (Quad)   (Total)
    R1        7.34197   0.00420   0.00000   0.00000   0.00000   7.34197
    R2        3.59065  -0.00130  -0.02520   0.00023  -0.02487   3.56578
    R3        1.84906   0.00133  -0.01786   0.00972  -0.00814   1.84092
    R4        1.84908   0.00132  -0.01787   0.00970  -0.00817   1.84091
    R5        1.83589   0.00044   0.00319  -0.00149   0.00173   1.83761
    R6        1.83628   0.00045   0.00296  -0.00137   0.00159   1.83787
    A1        2.08377   0.00541   0.09615   0.04638   0.11054   2.19431
    A2        2.08662   0.00553   0.09642   0.04733   0.11198   2.19860
    A3        1.90333  -0.00526  -0.02187  -0.00629  -0.06245   1.84088
    A4        2.20421  -0.00048  -0.01655   0.01349  -0.00580   2.19841
    A5        2.19708  -0.00055  -0.01808   0.01348  -0.00723   2.18985
    A6        1.88177   0.00103   0.03520  -0.02936   0.00319   1.88495
    A7        3.04137  -0.00211  -0.02106  -0.06257  -0.08650   2.95487
    A8        3.20857   0.00095   0.01477   0.02840   0.04425   3.25282
    D1       -0.40976  -0.00271  -0.10571   0.02002  -0.09043  -0.50018
    D2        2.73779  -0.00271  -0.07035  -0.15711  -0.23171   2.50607
    D3        1.97886   0.00269   0.07633   0.12734   0.20772   2.18658
    D4       -1.15678   0.00269   0.11169  -0.04979   0.06643  -1.09035
         Item               Value     Threshold  Converged?
 Maximum Force            0.005531     0.000450     NO 
 RMS     Force            0.002757     0.000300     NO 
 Maximum Displacement     0.171994     0.001800     NO 
 RMS     Displacement     0.083844     0.001200     NO 
 Predicted change in Energy=-2.242307D-03
 GradGradGradGradGradGradGradGradGradGradGradGradGradGradGradGradGradGrad

                          Input orientation:                          
 ---------------------------------------------------------------------
 Center     Atomic      Atomic             Coordinates (Angstroms)
 Number     Number       Type             X           Y           Z
 ---------------------------------------------------------------------
      1         29           0       -0.171012    0.037989    0.012597
      2          8           0        0.227729    0.220092    3.872992
      3          8           0       -0.011792    0.024567   -1.867556
      4          1           0        0.818716   -0.034885   -2.369882
      5          1           0       -0.749590   -0.057895   -2.495828
      6          1           0        0.944597   -0.188683    4.390693
      7          1           0       -0.162979    0.894485    4.457409
 ---------------------------------------------------------------------
                    Distance matrix (angstroms):
                    1          2          3          4          5
     1  Cu   0.000000
     2  O    3.885203   0.000000
     3  O    1.886931   5.748869   0.000000
     4  H    2.580906   6.275966   0.972424   0.000000
     5  H    2.576071   6.449364   0.972559   1.573523   0.000000
     6  H    4.523681   0.974172   6.334496   6.763496   7.093063
     7  H    4.526589   0.974167   6.386298   6.959839   7.042631
                    6          7
     6  H    0.000000
     7  H    1.550621   0.000000
 Stoichiometry    CuH4O2(2+,2)
 Framework group  C1[X(CuH4O2)]
 Deg. of freedom    15
 Full point group                 C1      NOp   1
 Largest Abelian subgroup         C1      NOp   1
 Largest concise Abelian subgroup C1      NOp   1
                         Standard orientation:                         
 ---------------------------------------------------------------------
 Center     Atomic      Atomic             Coordinates (Angstroms)
 Number     Number       Type             X           Y           Z
 ---------------------------------------------------------------------
      1         29           0       -0.411494   -0.091557   -0.038645
      2          8           0        3.470300    0.064553    0.007245
      3          8           0       -2.277222    0.162415    0.084099
      4          1           0       -2.730047    1.011903    0.221677
      5          1           0       -2.952341   -0.509868   -0.111152
      6          1           0        4.012464    0.822751   -0.275959
      7          1           0        4.058634   -0.485363    0.555385
 ---------------------------------------------------------------------
 Rotational constants (GHZ):    130.7513834      1.5050466      1.4934842
 Standard basis: 6-311G(d) (5D, 7F)
 There are   102 symmetry adapted cartesian basis functions of A   symmetry.
 There are    94 symmetry adapted basis functions of A   symmetry.
    94 basis functions,   165 primitive gaussians,   102 cartesian basis functions
    24 alpha electrons       23 beta electrons
       nuclear repulsion energy       142.2803810376 Hartrees.
 NAtoms=    7 NActive=    7 NUniq=    7 SFac= 1.00D+00 NAtFMM=   60 NAOKFM=F Big=F
 Integral buffers will be    131072 words long.
 Raffenetti 2 integral format.
 Two-electron integral symmetry is turned on.
 One-electron integrals computed using PRISM.
 NBasis=    94 RedAO= T EigKep=  9.37D-03  NBF=    94
 NBsUse=    94 1.00D-06 EigRej= -1.00D+00 NBFU=    94
 Initial guess from the checkpoint file:  "pescuh2o2.chk"
 B after Tr=     0.000000    0.000000    0.000000
         Rot=    0.998774    0.049506   -0.000423    0.000644 Ang=   5.68 deg.
 Initial guess <Sx>= 0.0000 <Sy>= 0.0000 <Sz>= 0.5000 <S**2>= 0.7525 S= 0.5012
 ExpMin= 4.08D-02 ExpMax= 3.37D+05 ExpMxC= 1.14D+04 IAcc=2 IRadAn=         4 AccDes= 0.00D+00
 Harris functional with IExCor=  402 and IRadAn=       4 diagonalized for initial guess.
 HarFok:  IExCor=  402 AccDes= 0.00D+00 IRadAn=         4 IDoV= 1 UseB2=F ITyADJ=14
 ICtDFT=  3500011 ScaDFX=  1.000000  1.000000  1.000000  1.000000
 FoFCou: FMM=F IPFlag=           0 FMFlag=      100000 FMFlg1=           0
         NFxFlg=           0 DoJE=T BraDBF=F KetDBF=T FulRan=T
         wScrn=  0.000000 ICntrl=     500 IOpCl=  0 I1Cent=   200000004 NGrid=           0
         NMat0=    1 NMatS0=      1 NMatT0=    0 NMatD0=    1 NMtDS0=    0 NMtDT0=    0
 Petite list used in FoFCou.
 Keep R1 and R2 ints in memory in canonical form, NReq=21960509.
 Requested convergence on RMS density matrix=1.00D-08 within  64 cycles.
 Requested convergence on MAX density matrix=1.00D-06.
 Requested convergence on             energy=1.00D-06.
 No special actions if energy rises.
 SCF Done:  E(UB3LYP) =  -1792.54366597     A.U. after   27 cycles
            NFock= 27  Conv=0.71D-08     -V/T= 2.0006
 <Sx>= 0.0000 <Sy>= 0.0000 <Sz>= 0.5000 <S**2>= 0.7525 S= 0.5012
 <L.S>= 0.000000000000E+00
 Annihilation of the first spin contaminant:
 S**2 before annihilation     0.7525,   after     0.7500
 QCSCF skips out because SCF is already converged.
 Calling FoFJK, ICntrl=      2127 FMM=F ISym2X=0 I1Cent= 0 IOpClX= 1 NMat=1 NMatS=1 NMatT=0.
 ***** Axes restored to original set *****
 -------------------------------------------------------------------
 Center     Atomic                   Forces (Hartrees/Bohr)
 Number     Number              X              Y              Z
 -------------------------------------------------------------------
      1       29          -0.000970122   -0.000209955   -0.001687144
      2        8           0.002272414    0.002405156   -0.001063119
      3        8           0.000374735   -0.003364803   -0.002447575
      4        1          -0.000128080    0.001406427    0.000257203
      5        1          -0.000022941    0.001511359    0.000198420
      6        1           0.004388641   -0.005883024    0.002062107
      7        1          -0.005914646    0.004134839    0.002680108
 -------------------------------------------------------------------
 Cartesian Forces:  Max     0.005914646 RMS     0.002717961

 GradGradGradGradGradGradGradGradGradGradGradGradGradGradGradGradGradGrad
 Berny optimization.
 Using GEDIIS/GDIIS optimizer.
 FormGI is forming the generalized inverse of G from B-inverse, IUseBI=4.
 Internal  Forces:  Max     0.006855373 RMS     0.002773898
 Search for a local minimum.
 Step number   5 out of a maximum of  100 on scan point     1 out of    26
 All quantities printed in internal units (Hartrees-Bohrs-Radians)
 Mixed Optimization -- RFO/linear search
 Update second derivatives using D2CorX and points    3    4    5
 DE= -1.93D-03 DEPred=-2.24D-03 R= 8.61D-01
 TightC=F SS=  1.41D+00  RLast= 3.85D-01 DXNew= 1.4270D+00 1.1556D+00
 Trust test= 8.61D-01 RLast= 3.85D-01 DXMaxT set to 1.16D+00
 The second derivative matrix:
                          R1        R2        R3        R4        R5
           R1           0.00870
           R2          -0.00095   0.19462
           R3          -0.00364   0.02403   0.66186
           R4          -0.00365   0.02410   0.08521   0.66218
           R5           0.00058   0.00037  -0.00780  -0.00782   0.57392
           R6           0.00053   0.00064  -0.00677  -0.00678  -0.00296
           A1           0.00125   0.00402  -0.02806  -0.02815  -0.01404
           A2           0.00123   0.00399  -0.02850  -0.02860  -0.01423
           A3          -0.00008   0.01101   0.03313   0.03327  -0.00923
           A4          -0.00040   0.00114   0.00214   0.00216  -0.00634
           A5          -0.00044   0.00120   0.00305   0.00306  -0.00614
           A6           0.00122  -0.00372  -0.00636  -0.00640   0.01359
           A7           0.00043  -0.00286  -0.00532  -0.00531   0.00209
           A8          -0.00011   0.00090   0.00110   0.00109  -0.00100
           D1          -0.00004  -0.00387  -0.01837  -0.01837  -0.00354
           D2          -0.00026  -0.00194  -0.01442  -0.01437  -0.00403
           D3           0.00028   0.00181   0.01417   0.01413   0.00410
           D4           0.00007   0.00374   0.01812   0.01812   0.00362
                          R6        A1        A2        A3        A4
           R6           0.57379
           A1          -0.01425   0.10520
           A2          -0.01444  -0.05498   0.10484
           A3          -0.00879  -0.02911  -0.02932   0.14454
           A4          -0.00626  -0.00187  -0.00195  -0.00929   0.15468
           A5          -0.00605  -0.00100  -0.00108  -0.00862  -0.00503
           A6           0.01340   0.00575   0.00598   0.01428   0.00979
           A7           0.00201   0.00734   0.00743  -0.00405  -0.00073
           A8          -0.00098  -0.00323  -0.00326   0.00055   0.00018
           D1          -0.00371   0.00354   0.00369  -0.01567  -0.00058
           D2          -0.00413  -0.00013  -0.00004  -0.01211  -0.00038
           D3           0.00420   0.00033   0.00024   0.01186   0.00032
           D4           0.00378  -0.00334  -0.00349   0.01542   0.00052
                          A5        A6        A7        A8        D1
           A5           0.15524
           A6           0.00915   0.14161
           A7          -0.00091   0.00090   0.03526
           A8           0.00026  -0.00007   0.00042   0.03597
           D1          -0.00058   0.00073  -0.00016   0.00010   0.00561
           D2          -0.00031   0.00008   0.00010  -0.00028   0.00327
           D3           0.00025   0.00002  -0.00012   0.00030  -0.00329
           D4           0.00051  -0.00062   0.00014  -0.00008  -0.00333
                          D2        D3        D4
           D2           0.00677
           D3          -0.00453   0.00689
           D4          -0.00333   0.00335   0.00565
 ITU=  1  1  1  1  0
 Use linear search instead of GDIIS.
     Eigenvalues ---    0.00230   0.00304   0.01405   0.03354   0.03625
     Eigenvalues ---    0.12489   0.15217   0.16000   0.16002   0.19298
     Eigenvalues ---    0.57141   0.57681   0.57681   0.761971000.00000
     Eigenvalues --- 1000.000001000.000001000.00000
 RFO step:  Lambda=-1.66609822D-03 EMin= 2.29663778D-03
 Quartic linear search produced a step of  0.06227.
 Iteration  1 RMS(Cart)=  0.06590800 RMS(Int)=  0.05180622
 Iteration  2 RMS(Cart)=  0.03810053 RMS(Int)=  0.00945712
 Iteration  3 RMS(Cart)=  0.00209083 RMS(Int)=  0.00924250
[...]
           A3         108.55479 108.76831 108.89519 108.90537 108.77980
           A4         125.06658 125.06636 125.07155 125.09090 125.14504
           A5         125.06440 125.06958 125.07146 125.09326 125.13954
           A6         108.42631 108.38161 108.36005 108.35090 108.33884
           A7         177.94030 178.70469 179.13778 179.49497 179.76121
           A8         159.97578 164.93809 168.63253 172.03804 175.71996
           D1          16.60118  17.32385  17.32585  16.67502  15.52628
           D2         175.97145 177.96456 178.92159 179.33811 179.55980
           D3        -175.96440-178.01054-178.95751-179.40184-179.58435
           D4         -16.59413 -17.36983 -17.36176 -16.73875 -15.55083
                          21        22        23        24        25
     Eigenvalues --  **************************************************
           R1           1.88520   1.78520   1.68520   1.58520   1.48520
           R2           1.85011   1.84955   1.84825   1.84418   1.83528
           R3           0.97622   0.97811   0.98088   0.98505   0.99121
           R4           0.97622   0.97811   0.98087   0.98505   0.99122
           R5           0.97686   0.97673   0.97677   0.97713   0.97781
           R6           0.97686   0.97673   0.97677   0.97713   0.97781
           A1         125.12408 125.50615 125.98013 126.64746 127.72363
           A2         125.12820 125.50376 125.97023 126.64989 127.72044
           A3         108.45860 107.91074 107.09082 105.92940 104.34257
           A4         125.21969 125.33331 125.49290 125.73100 125.93735
           A5         125.21732 125.33395 125.49779 125.73224 125.93665
           A6         108.31069 108.24623 108.14923 108.06299 108.08053
           A7         179.96342 180.08203 180.09432 180.02928 179.86530
           A8         178.93700 181.84805 184.50856 187.77344 188.43448
           D1          14.37239  13.25870  12.31041  10.32500   4.75507
           D2         179.83716-179.67580-178.62738-176.91852-176.27904
           D3        -179.87905 179.50276 178.57661 176.88969 176.34812
           D4         -14.41429 -13.43173 -12.36118 -10.35382  -4.68599
                          26
     Eigenvalues --  **********
           R1           1.38520
           R2           1.83136
           R3           0.99869
           R4           0.99869
           R5           0.97775
           R6           0.97775
           A1         128.83305
           A2         128.83475
           A3         102.33220
           A4         125.95833
           A5         125.96058
           A6         108.08110
           A7         179.99976
           A8         180.10843
           D1           0.02882
           D2        -179.95313
           D3         179.97603
           D4          -0.00592
                          Input orientation:                          
 ---------------------------------------------------------------------
 Center     Atomic      Atomic             Coordinates (Angstroms)
 Number     Number       Type             X           Y           Z
 ---------------------------------------------------------------------
      1         29           0        0.136449    0.136799    1.033101
      2          8           0        0.205110    0.210567    2.414633
      3          8           0        0.046105    0.040262   -0.793478
      4          1           0        0.744259   -0.303407   -1.385478
      5          1           0       -0.708690    0.323352   -1.346769
      6          1           0        0.950387   -0.063856    3.020144
      7          1           0       -0.477950    0.551953    3.058273
 ---------------------------------------------------------------------
                    Distance matrix (angstroms):
                    1          2          3          4          5
     1  Cu   0.000000
     2  O    1.385203   0.000000
     3  O    1.831357   3.216560   0.000000
     4  H    2.532338   3.872427   0.977748   0.000000
     5  H    2.532359   3.872453   0.977746   1.582841   0.000000
     6  H    2.156641   0.998694   3.920750   4.416943   4.687473
     7  H    2.156655   0.998693   3.920771   4.687468   4.417001
                    6          7
     6  H    0.000000
     7  H    1.555899   0.000000
 Stoichiometry    CuH4O2(2+,2)
 Framework group  C1[X(CuH4O2)]
 Deg. of freedom    15
 Full point group                 C1      NOp   1
 Largest Abelian subgroup         C1      NOp   1
 Largest concise Abelian subgroup C1      NOp   1
                         Standard orientation:                         
 ---------------------------------------------------------------------
 Center     Atomic      Atomic             Coordinates (Angstroms)
 Number     Number       Type             X           Y           Z
 ---------------------------------------------------------------------
      1         29           0        0.088925   -0.000002   -0.000210
      2          8           0        1.474128    0.000001    0.000263
      3          8           0       -1.742432    0.000000    0.000249
      4          1           0       -2.316561    0.791434    0.000293
      5          1           0       -2.316593   -0.791407    0.000448
      6          1           0        2.100361    0.777962    0.000703
      7          1           0        2.100387   -0.777937    0.000545
 ---------------------------------------------------------------------
 Rotational constants (GHZ):    203.5862387      4.8820059      4.7676773

 **********************************************************************

            Population analysis using the SCF density.

 **********************************************************************

 Orbital symmetries:
 Alpha Orbitals:
       Occupied  (A) (A) (A) (A) (A) (A) (A) (A) (A) (A) (A) (A)
                 (A) (A) (A) (A) (A) (A) (A) (A) (A) (A) (A) (A)
       Virtual   (A) (A) (A) (A) (A) (A) (A) (A) (A) (A) (A) (A)
                 (A) (A) (A) (A) (A) (A) (A) (A) (A) (A) (A) (A)
                 (A) (A) (A) (A) (A) (A) (A) (A) (A) (A) (A) (A)
                 (A) (A) (A) (A) (A) (A) (A) (A) (A) (A) (A) (A)
                 (A) (A) (A) (A) (A) (A) (A) (A) (A) (A) (A) (A)
                 (A) (A) (A) (A) (A) (A) (A) (A) (A) (A)
 Beta  Orbitals:
       Occupied  (A) (A) (A) (A) (A) (A) (A) (A) (A) (A) (A) (A)
                 (A) (A) (A) (A) (A) (A) (A) (A) (A) (A) (A)
       Virtual   (A) (A) (A) (A) (A) (A) (A) (A) (A) (A) (A) (A)
                 (A) (A) (A) (A) (A) (A) (A) (A) (A) (A) (A) (A)
                 (A) (A) (A) (A) (A) (A) (A) (A) (A) (A) (A) (A)
                 (A) (A) (A) (A) (A) (A) (A) (A) (A) (A) (A) (A)
                 (A) (A) (A) (A) (A) (A) (A) (A) (A) (A) (A) (A)
                 (A) (A) (A) (A) (A) (A) (A) (A) (A) (A) (A)
 The electronic state is 2-A.
 Alpha  occ. eigenvalues -- -323.58989 -39.41508 -34.64360 -34.64055 -34.61230
 Alpha  occ. eigenvalues --  -19.72554 -19.63205  -4.94889  -3.48006  -3.45137
 Alpha  occ. eigenvalues --   -3.39919  -1.62739  -1.51205  -1.14777  -1.13036
 Alpha  occ. eigenvalues --   -1.04363  -1.02585  -0.95513  -0.89405  -0.89353
 Alpha  occ. eigenvalues --   -0.88191  -0.87059  -0.82006  -0.81047
 Alpha virt. eigenvalues --   -0.44690  -0.37439  -0.33796  -0.29094  -0.27204
 Alpha virt. eigenvalues --   -0.19618  -0.18016  -0.04862  -0.02674   0.02245
 Alpha virt. eigenvalues --    0.14726   0.26085   0.26244   0.28948   0.38878
 Alpha virt. eigenvalues --    0.42893   0.60249   0.73494   0.80658   0.88896
 Alpha virt. eigenvalues --    0.90328   0.94557   1.00558   1.07735   1.21207
 Alpha virt. eigenvalues --    1.55353   1.57055   1.59522   1.59593   1.64601
 Alpha virt. eigenvalues --    2.14211   2.17823   2.18524   2.25122   2.41619
 Alpha virt. eigenvalues --    2.48070   2.61890   2.65875   2.66639   2.92876
 Alpha virt. eigenvalues --    3.19597   3.37302   3.38155   3.38874   3.38876
 Alpha virt. eigenvalues --    3.53544   3.61362   3.71285   4.23179   4.25363
 Alpha virt. eigenvalues --    4.40723   4.48781   4.49870   5.40159   6.57084
 Alpha virt. eigenvalues --    6.57358   6.65404   6.79023   7.11729   8.73374
 Alpha virt. eigenvalues --    8.87840   9.53598  31.52991  42.14636  42.25934
 Alpha virt. eigenvalues --   42.72392  49.19448  49.23253 183.55410 978.82595
  Beta  occ. eigenvalues -- -323.58988 -39.39452 -34.62107 -34.61842 -34.60699
  Beta  occ. eigenvalues --  -19.71885 -19.62856  -4.90769  -3.42205  -3.39337
  Beta  occ. eigenvalues --   -3.38577  -1.61175  -1.50397  -1.14016  -1.12423
  Beta  occ. eigenvalues --   -1.02317  -0.96297  -0.95163  -0.87457  -0.87282
  Beta  occ. eigenvalues --   -0.86297  -0.81032  -0.80553
  Beta virt. eigenvalues --   -0.65712  -0.44304  -0.37202  -0.33661  -0.28842
  Beta virt. eigenvalues --   -0.27130  -0.19436  -0.18066  -0.04815  -0.02476
  Beta virt. eigenvalues --    0.02338   0.16624   0.26402   0.27507   0.29222
  Beta virt. eigenvalues --    0.39108   0.43142   0.60938   0.74007   0.82343
  Beta virt. eigenvalues --    0.89581   0.91047   0.99050   1.00902   1.08759
  Beta virt. eigenvalues --    1.21656   1.55372   1.58120   1.59492   1.59814
  Beta virt. eigenvalues --    1.64804   2.16180   2.19155   2.19955   2.26189
  Beta virt. eigenvalues --    2.43332   2.49953   2.62198   2.66134   2.67743
  Beta virt. eigenvalues --    2.93037   3.21199   3.39648   3.39655   3.40388
  Beta virt. eigenvalues --    3.41211   3.57273   3.62534   3.71902   4.24636
  Beta virt. eigenvalues --    4.28290   4.41305   4.49122   4.50170   5.41198
  Beta virt. eigenvalues --    6.58736   6.59015   6.73208   6.80644   7.13044
  Beta virt. eigenvalues --    8.76842   8.88742   9.57035  31.55709  42.17479
  Beta virt. eigenvalues --   42.26724  42.75254  49.20089  49.23623 183.56440
  Beta virt. eigenvalues --  978.82798
          Condensed to atoms (all electrons):
               1          2          3          4          5          6
     1  Cu  27.462464   0.068842   0.115997  -0.006533  -0.006532  -0.013843
     2  O    0.068842   8.341270  -0.007232  -0.000088  -0.000088   0.224142
     3  O    0.115997  -0.007232   8.281346   0.243540   0.243541   0.000051
     4  H   -0.006533  -0.000088   0.243540   0.206070  -0.014399   0.000040
     5  H   -0.006532  -0.000088   0.243541  -0.014399   0.206066  -0.000006
     6  H   -0.013843   0.224142   0.000051   0.000040  -0.000006   0.208103
     7  H   -0.013842   0.224142   0.000051  -0.000006   0.000040  -0.014525
               7
     1  Cu  -0.013842
     2  O    0.224142
     3  O    0.000051
     4  H   -0.000006
     5  H    0.000040
     6  H   -0.014525
     7  H    0.208100
          Atomic-Atomic Spin Densities.
               1          2          3          4          5          6
     1  Cu   0.741736  -0.056571  -0.013026   0.000193   0.000193   0.000551
     2  O   -0.056571   0.299161  -0.000203   0.000004   0.000004  -0.002995
     3  O   -0.013026  -0.000203   0.131116  -0.001483  -0.001483  -0.000005
     4  H    0.000193   0.000004  -0.001483  -0.002730   0.000174  -0.000002
     5  H    0.000193   0.000004  -0.001483   0.000174  -0.002730   0.000000
     6  H    0.000551  -0.002995  -0.000005  -0.000002   0.000000  -0.006935
     7  H    0.000551  -0.002995  -0.000005   0.000000  -0.000002   0.000760
               7
     1  Cu   0.000551
     2  O   -0.002995
     3  O   -0.000005
     4  H    0.000000
     5  H   -0.000002
     6  H    0.000760
     7  H   -0.006935
 Mulliken charges and spin densities:
               1          2
     1  Cu   1.393448   0.673628
     2  O   -0.850987   0.236403
     3  O   -0.877295   0.114910
     4  H    0.571376  -0.003843
     5  H    0.571379  -0.003843
     6  H    0.596038  -0.008627
     7  H    0.596040  -0.008627
 Sum of Mulliken charges =   2.00000   1.00000
 Mulliken charges and spin densities with hydrogens summed into heavy atoms:
               1          2
     1  Cu   1.393448   0.673628
     2  O    0.341092   0.219149
     3  O    0.265460   0.107224
 Electronic spatial extent (au):  <R**2>=            245.9952
 Charge=              2.0000 electrons
 Dipole moment (field-independent basis, Debye):
    X=              0.9903    Y=              0.0001    Z=              0.0023  Tot=              0.9903
 Quadrupole moment (field-independent basis, Debye-Ang):
   XX=             12.6927   YY=            -14.6371   ZZ=            -21.8989
   XY=              0.0000   XZ=              0.0029   YZ=              0.0000
 Traceless Quadrupole moment (field-independent basis, Debye-Ang):
   XX=             20.6405   YY=             -6.6893   ZZ=            -13.9512
   XY=              0.0000   XZ=              0.0029   YZ=              0.0000
 Octapole moment (field-independent basis, Debye-Ang**2):
  XXX=             -3.5351  YYY=              0.0002  ZZZ=             -0.0048  XYY=              0.2292
  XXY=              0.0000  XXZ=              0.0197  XZZ=              1.5361  YZZ=              0.0000
  YYZ=              0.0020  XYZ=              0.0016
 Hexadecapole moment (field-independent basis, Debye-Ang**3):
 XXXX=            -11.1259 YYYY=            -12.7005 ZZZZ=            -14.6146 XXXY=              0.0002
 XXXZ=              0.0091 YYYX=              0.0000 YYYZ=              0.0000 ZZZX=              0.0015
 ZZZY=              0.0000 XXYY=             -5.7388 XXZZ=            -40.8228 YYZZ=             -5.3237
 XXYZ=             -0.0004 YYXZ=              0.0020 ZZXY=              0.0000
 N-N= 2.151699977326D+02 E-N=-4.690059919086D+03  KE= 1.792476035576D+03
                          Isotropic Fermi Contact Couplings
        Atom                 a.u.       MegaHertz       Gauss      10(-4) cm-1
     1  Cu(63)            -0.25623    -303.91264    -108.44358    -101.37435
     2  O(17)              0.02779     -16.84701      -6.01143      -5.61956
     3  O(17)              0.01752     -10.61965      -3.78936      -3.54234
     4  H(1)              -0.00215      -9.60898      -3.42872      -3.20521
     5  H(1)              -0.00215      -9.60900      -3.42873      -3.20522
     6  H(1)              -0.00468     -20.93803      -7.47121      -6.98418
     7  H(1)              -0.00468     -20.93800      -7.47120      -6.98417
 --------------------------------------------------------
       Center         ----  Spin Dipole Couplings  ----
                      3XX-RR        3YY-RR        3ZZ-RR
 --------------------------------------------------------
     1   Atom        1.800887     -3.498868      1.697981
     2   Atom       -0.451505     -0.550556      1.002062
     3   Atom       -0.244483     -0.289515      0.533997
     4   Atom        0.008468      0.005660     -0.014127
     5   Atom        0.008469      0.005658     -0.014127
     6   Atom        0.011503      0.010405     -0.021908
     7   Atom        0.011506      0.010402     -0.021908
 --------------------------------------------------------
                        XY            XZ            YZ
 --------------------------------------------------------
     1   Atom        0.000007      0.002674     -0.000292
     2   Atom        0.000000     -0.001577     -0.000138
     3   Atom        0.000000      0.000482      0.000056
     4   Atom       -0.024708     -0.000002      0.000006
     5   Atom        0.024708     -0.000005     -0.000009
     6   Atom        0.045180      0.000014      0.000038
     7   Atom       -0.045180      0.000007     -0.000033
 --------------------------------------------------------


 ---------------------------------------------------------------------------------
              Anisotropic Spin Dipole Couplings in Principal Axis System
 ---------------------------------------------------------------------------------

       Atom             a.u.   MegaHertz   Gauss  10(-4) cm-1        Axes

              Baa    -3.4989  -495.376  -176.762  -165.240  0.0000  1.0000  0.0001
     1 Cu(63) Bbb     1.6979   240.393    85.778    80.187 -0.0260 -0.0001  0.9997
              Bcc     1.8010   254.982    90.984    85.053  0.9997  0.0000  0.0260
 
              Baa    -0.5506    39.838    14.215    13.288  0.0000  1.0000  0.0001
     2 O(17)  Bbb    -0.4515    32.671    11.658    10.898  1.0000  0.0000  0.0011
              Bcc     1.0021   -72.509   -25.873   -24.186 -0.0011 -0.0001  1.0000
 
              Baa    -0.2895    20.949     7.475     6.988  0.0000  1.0000 -0.0001
     3 O(17)  Bbb    -0.2445    17.691     6.312     5.901  1.0000  0.0000 -0.0006
              Bcc     0.5340   -38.640   -13.788   -12.889  0.0006  0.0001  1.0000
 
              Baa    -0.0177    -9.435    -3.367    -3.147  0.6868  0.7269 -0.0010
     4 H(1)   Bbb    -0.0141    -7.538    -2.690    -2.514  0.0008  0.0006  1.0000
              Bcc     0.0318    16.973     6.056     5.662  0.7269 -0.6868 -0.0001
 
              Baa    -0.0177    -9.436    -3.367    -3.147 -0.6867  0.7269  0.0008
     5 H(1)   Bbb    -0.0141    -7.538    -2.690    -2.514  0.0007 -0.0004  1.0000
              Bcc     0.0318    16.973     6.056     5.662  0.7269  0.6867 -0.0002
 
              Baa    -0.0342   -18.263    -6.517    -6.092 -0.7028  0.7114 -0.0014
     6 H(1)   Bbb    -0.0219   -11.689    -4.171    -3.899 -0.0013  0.0006  1.0000
              Bcc     0.0561    29.952    10.688     9.991  0.7114  0.7028  0.0005
 
              Baa    -0.0342   -18.263    -6.517    -6.092  0.7028  0.7114  0.0015
     7 H(1)   Bbb    -0.0219   -11.689    -4.171    -3.899 -0.0013 -0.0008  1.0000
              Bcc     0.0561    29.952    10.688     9.991  0.7114 -0.7028  0.0004
 

 ---------------------------------------------------------------------------------

 B after Tr=    -0.145546   -0.167705   -1.027648
         Rot=    0.998771   -0.018556    0.013874   -0.043803 Ang=  -5.68 deg.
 Atom   5 needs variable   3=   0.9777457233 but is    0.9777480743
 Input z-matrix variables are not compatible with final structure.
 1\1\GINC-MILLENNIUM-FALCON\Scan\UB3LYP\6-311G(d)\Cu1H4O2(2+,2)\JAKE\18
 -Jun-2016\0\\#opt=(modredundant,maxcycles=350) B3LYP/6-311G* scf=xqc\\
 cu2(h20)2\\2,2\Cu,0.0996095649,0.1115412357,1.0407060813\O,0.168270672
 8,0.1853089436,2.4222383208\O,0.0092661338,0.0150043379,-0.7858723156\
 H,0.7074197008,-0.3286650609,-1.3778725166\H,-0.745528729,0.2980943653
 ,-1.3391637857\H,0.9135476655,-0.0891141894,3.0277499037\H,-0.51478940
 38,0.5266950709,3.0658781721\\Version=EM64L-G09RevD.01\State=2-A\HF=-1
 792.5446313,-1792.5439808,-1792.5434406,-1792.5430414,-1792.5428317,-1
 792.5428894,-1792.5432747,-1792.5440514,-1792.5453337,-1792.5472182,-1
 792.5497802,-1792.5531248,-1792.5573255,-1792.5624333,-1792.5702807,-1
 792.5771887,-1792.5848135,-1792.5927635,-1792.6004114,-1792.6068368,-1
 792.6106107,-1792.6095996,-1792.6003025,-1792.5775019,-1792.5332221,-1
 792.4543385\S2=0.752295,0.752271,0.752246,0.752221,0.752194,0.752166,0
 .752138,0.75211,0.752082,0.752045,0.751998,0.75195,0.751888,0.751809,0
 .752182,0.75179,0.751543,0.75139,0.751297,0.751252,0.75125,0.751294,0.
 75138,0.751512,0.751731,0.751865\S2-1=0.,0.,0.,0.,0.,0.,0.,0.,0.,0.,0.
 ,0.,0.,0.,0.,0.,0.,0.,0.,0.,0.,0.,0.,0.,0.,0.\S2A=0.750004,0.750004,0.
 750004,0.750003,0.750003,0.750003,0.750003,0.750003,0.750003,0.750003,
 0.750003,0.750003,0.750003,0.750002,0.750002,0.750001,0.750001,0.75000
 1,0.750001,0.750001,0.750001,0.750001,0.750001,0.750001,0.750002,0.750
 003\RMSD=2.725e-09,6.523e-09,1.857e-09,4.614e-09,3.341e-09,6.083e-09,3
 .798e-09,7.159e-09,3.705e-09,9.382e-09,4.028e-09,1.969e-09,8.126e-10,9
 .352e-09,8.246e-09,2.669e-09,5.440e-09,2.233e-09,2.086e-09,1.617e-09,8
 .768e-09,3.205e-09,9.866e-09,1.139e-09,1.896e-09,7.125e-09\PG=C01 [X(C
 u1H4O2)]\\@


 TIME GOES, YOU SAY?  AH NO!
 ALAS, TIME STAYS, WE GO.
    -- A. DOBSON (1840-1921)
 Job cpu time:       0 days  1 hours  9 minutes  2.7 seconds.
 File lengths (MBytes):  RWF=     10 Int=      0 D2E=      0 Chk=      3 Scr=      1
 Normal termination of Gaussian 09 at Sat Jun 18 18:34:30 2016.
