 Entering Gaussian System, Link 0=g09
 Input=2coord_b3lyp_A_F_150.inp
 Output=2coord_b3lyp_A_F_150.log
 Initial command:
 /usr/local/g09/l1.exe "./Gau-8499.inp" -scrdir="./"
 Entering Link 1 = /usr/local/g09/l1.exe PID=      8501.
  
 Copyright (c) 1988,1990,1992,1993,1995,1998,2003,2009,2013,
            Gaussian, Inc.  All Rights Reserved.
  
 This is part of the Gaussian(R) 09 program.  It is based on
 the Gaussian(R) 03 system (copyright 2003, Gaussian, Inc.),
 the Gaussian(R) 98 system (copyright 1998, Gaussian, Inc.),
 the Gaussian(R) 94 system (copyright 1995, Gaussian, Inc.),
 the Gaussian 92(TM) system (copyright 1992, Gaussian, Inc.),
 the Gaussian 90(TM) system (copyright 1990, Gaussian, Inc.),
 the Gaussian 88(TM) system (copyright 1988, Gaussian, Inc.),
 the Gaussian 86(TM) system (copyright 1986, Carnegie Mellon
 University), and the Gaussian 82(TM) system (copyright 1983,
 Carnegie Mellon University). Gaussian is a federally registered
 trademark of Gaussian, Inc.
  
 This software contains proprietary and confidential information,
 including trade secrets, belonging to Gaussian, Inc.
  
 This software is provided under written license and may be
 used, copied, transmitted, or stored only in accord with that
 written license.
  
 The following legend is applicable only to US Government
 contracts under FAR:
  
                    RESTRICTED RIGHTS LEGEND
  
 Use, reproduction and disclosure by the US Government is
 subject to restrictions as set forth in subparagraphs (a)
 and (c) of the Commercial Computer Software - Restricted
 Rights clause in FAR 52.227-19.
  
 Gaussian, Inc.
 340 Quinnipiac St., Bldg. 40, Wallingford CT 06492
  
  
 ---------------------------------------------------------------
 Warning -- This program may not be used in any manner that
 competes with the business of Gaussian, Inc. or will provide
 assistance to any competitor of Gaussian, Inc.  The licensee
 of this program is prohibited from giving any competitor of
 Gaussian, Inc. access to this program.  By using this program,
 the user acknowledges that Gaussian, Inc. is engaged in the
 business of creating and licensing software in the field of
 computational chemistry and represents and warrants to the
 licensee that it is not a competitor of Gaussian, Inc. and that
 it will not use this program in any manner prohibited above.
 ---------------------------------------------------------------
  

 Cite this work as:
 Gaussian 09, Revision D.01,
 M. J. Frisch, G. W. Trucks, H. B. Schlegel, G. E. Scuseria, 
 M. A. Robb, J. R. Cheeseman, G. Scalmani, V. Barone, B. Mennucci, 
 G. A. Petersson, H. Nakatsuji, M. Caricato, X. Li, H. P. Hratchian, 
 A. F. Izmaylov, J. Bloino, G. Zheng, J. L. Sonnenberg, M. Hada, 
 M. Ehara, K. Toyota, R. Fukuda, J. Hasegawa, M. Ishida, T. Nakajima, 
 Y. Honda, O. Kitao, H. Nakai, T. Vreven, J. A. Montgomery, Jr., 
 J. E. Peralta, F. Ogliaro, M. Bearpark, J. J. Heyd, E. Brothers, 
 K. N. Kudin, V. N. Staroverov, T. Keith, R. Kobayashi, J. Normand, 
 K. Raghavachari, A. Rendell, J. C. Burant, S. S. Iyengar, J. Tomasi, 
 M. Cossi, N. Rega, J. M. Millam, M. Klene, J. E. Knox, J. B. Cross, 
 V. Bakken, C. Adamo, J. Jaramillo, R. Gomperts, R. E. Stratmann, 
 O. Yazyev, A. J. Austin, R. Cammi, C. Pomelli, J. W. Ochterski, 
 R. L. Martin, K. Morokuma, V. G. Zakrzewski, G. A. Voth, 
 P. Salvador, J. J. Dannenberg, S. Dapprich, A. D. Daniels, 
 O. Farkas, J. B. Foresman, J. V. Ortiz, J. Cioslowski, 
 and D. J. Fox, Gaussian, Inc., Wallingford CT, 2013.
 
 ******************************************
 Gaussian 09:  EM64L-G09RevD.01 24-Apr-2013
                17-Jun-2016 
 ******************************************
 %mem=2GB
 %nprocshared=1
 Will use up to    1 processors via shared memory.
 %chk=pescuh2o2.chk
 -------------------------------------------------------
 #opt=(modredundant,maxcycles=350) B3LYP/6-311G* scf=xqc
 -------------------------------------------------------
 1/6=350,14=-1,18=120,19=15,26=3,38=1/1,3;
 2/9=110,12=2,17=6,18=5,40=1/2;
 3/5=4,6=6,7=1,11=2,16=1,25=1,30=1,71=1,74=-5/1,2,3;
 4//1;
 5/5=2,8=3,13=1,38=5/2,8;
 6/7=2,8=2,9=2,10=2,28=1/1;
 7//1,2,3,16;
 1/6=350,14=-1,18=20,19=15,26=3/3(2);
 2/9=110/2;
 99//99;
 2/9=110/2;
 3/5=4,6=6,7=1,11=2,16=1,25=1,30=1,71=1,74=-5/1,2,3;
 4/5=5,16=3,69=1/1;
 5/5=2,8=3,13=1,38=5/2,8;
 7//1,2,3,16;
 1/6=350,14=-1,18=20,19=15,26=3/3(-5);
 2/9=110/2;
 6/7=2,8=2,9=2,10=2,19=2,28=1/1;
 99/9=1/99;
 ---------
 cu2(h20)2
 ---------
 Symbolic Z-matrix:
 Charge =  2 Multiplicity = 2
 Cu
 O                    1    A
 O                    1    B        2    H
 H                    3    C        1    D        2    E        0
 H                    3    C        1    D        2    F        0
 H                    2    C        1    D        3    G        0
 H                    2    C        1    D        6    E        0
       Variables:
  A                     3.8852                   
  B                     1.88506                  
  C                     0.95                     
  D                   109.471                    
  E                   180.                       
  F                     0.                       
  G                    90.                       
  H                   150.                       
 
     4 tetrahedral angles replaced.
 Add virtual bond connecting atoms O2         and Cu1        Dist= 7.34D+00.
 The following ModRedundant input section has been read:
 A       2       1       3 F                                                   
 B       1       2 S  25 -0.100                                                
 

 GradGradGradGradGradGradGradGradGradGradGradGradGradGradGradGradGradGrad
 Berny optimization.
 Initialization pass.
                           ----------------------------
                           !    Initial Parameters    !
                           ! (Angstroms and Degrees)  !
 --------------------------                            --------------------------
 ! Name  Definition              Value          Derivative Info.                !
 --------------------------------------------------------------------------------
 ! R1    R(1,2)                  3.8852         Scan                            !
 ! R2    R(1,3)                  1.8851         estimate D2E/DX2                !
 ! R3    R(2,6)                  0.95           estimate D2E/DX2                !
 ! R4    R(2,7)                  0.95           estimate D2E/DX2                !
 ! R5    R(3,4)                  0.95           estimate D2E/DX2                !
 ! R6    R(3,5)                  0.95           estimate D2E/DX2                !
 ! A1    A(2,1,3)              150.0            Frozen                          !
 ! A2    A(1,2,6)              109.4712         estimate D2E/DX2                !
 ! A3    A(1,2,7)              109.4712         estimate D2E/DX2                !
 ! A4    A(6,2,7)              141.0576         estimate D2E/DX2                !
 ! A5    A(1,3,4)              109.4712         estimate D2E/DX2                !
 ! A6    A(1,3,5)              109.4712         estimate D2E/DX2                !
 ! A7    A(4,3,5)              141.0576         estimate D2E/DX2                !
 ! D1    D(3,1,2,6)             90.0            estimate D2E/DX2                !
 ! D2    D(3,1,2,7)            -90.0            estimate D2E/DX2                !
 ! D3    D(2,1,3,4)            180.0            estimate D2E/DX2                !
 ! D4    D(2,1,3,5)              0.0            estimate D2E/DX2                !
 ! D5    D(1,2,6,7)            180.0            estimate D2E/DX2                !
 ! D6    D(1,3,4,5)            180.0            estimate D2E/DX2                !
 --------------------------------------------------------------------------------
 Trust Radius=3.00D-01 FncErr=1.00D-07 GrdErr=1.00D-06
 Number of optimizations in scan=  26
 Number of steps in this run=    100 maximum allowed number of steps=    100.
 GradGradGradGradGradGradGradGradGradGradGradGradGradGradGradGradGradGrad

                          Input orientation:                          
 ---------------------------------------------------------------------
 Center     Atomic      Atomic             Coordinates (Angstroms)
 Number     Number       Type             X           Y           Z
 ---------------------------------------------------------------------
      1         29           0        0.000000    0.000000    0.000000
      2          8           0        0.000000    0.000000    3.885203
      3          8           0        0.942530    0.000000   -1.632511
      4          1           0        0.325192    0.000000   -2.354586
      5          1           0        1.876536    0.000000   -1.458918
      6          1           0        0.000000    0.895669    4.201870
      7          1           0        0.000000   -0.895669    4.201870
 ---------------------------------------------------------------------
                    Distance matrix (angstroms):
                    1          2          3          4          5
     1  Cu   0.000000
     2  O    3.885203   0.000000
     3  O    1.885061   5.597636   0.000000
     4  H    2.376936   6.248257   0.950000   0.000000
     5  H    2.376936   5.664010   0.950000   1.791337   0.000000
     6  H    4.296269   0.950000   5.977506   6.625337   6.030599
     7  H    4.296269   0.950000   5.977506   6.625337   6.030599
                    6          7
     6  H    0.000000
     7  H    1.791337   0.000000
 Stoichiometry    CuH4O2(2+,2)
 Framework group  CS[SG(CuH2O2),X(H2)]
 Deg. of freedom    10
 Full point group                 CS      NOp   2
 Largest Abelian subgroup         CS      NOp   2
 Largest concise Abelian subgroup CS      NOp   2
                         Standard orientation:                         
 ---------------------------------------------------------------------
 Center     Atomic      Atomic             Coordinates (Angstroms)
 Number     Number       Type             X           Y           Z
 ---------------------------------------------------------------------
      1         29           0        0.000000    0.502471    0.000000
      2          8           0       -1.537281   -3.065661    0.000000
      3          8           0        1.511556    1.628817    0.000000
      4          1           0        1.230306    2.536230    0.000000
      5          1           0        2.300650    1.099827    0.000000
      6          1           0       -1.662578   -3.356485    0.895669
      7          1           0       -1.662578   -3.356485   -0.895669
 ---------------------------------------------------------------------
 Rotational constants (GHZ):     41.0298636      1.5970711      1.5525069
 Standard basis: 6-311G(d) (5D, 7F)
 There are    74 symmetry adapted cartesian basis functions of A'  symmetry.
 There are    28 symmetry adapted cartesian basis functions of A"  symmetry.
 There are    67 symmetry adapted basis functions of A'  symmetry.
 There are    27 symmetry adapted basis functions of A"  symmetry.
    94 basis functions,   165 primitive gaussians,   102 cartesian basis functions
    24 alpha electrons       23 beta electrons
       nuclear repulsion energy       144.4256966183 Hartrees.
 NAtoms=    7 NActive=    7 NUniq=    6 SFac= 1.36D+00 NAtFMM=   60 NAOKFM=F Big=F
 Integral buffers will be    131072 words long.
 Raffenetti 2 integral format.
 Two-electron integral symmetry is turned on.
 One-electron integrals computed using PRISM.
 NBasis=    94 RedAO= T EigKep=  1.33D-02  NBF=    67    27
 NBsUse=    94 1.00D-06 EigRej= -1.00D+00 NBFU=    67    27
 ExpMin= 4.08D-02 ExpMax= 3.37D+05 ExpMxC= 1.14D+04 IAcc=2 IRadAn=         4 AccDes= 0.00D+00
 Harris functional with IExCor=  402 and IRadAn=       4 diagonalized for initial guess.
 HarFok:  IExCor=  402 AccDes= 0.00D+00 IRadAn=         4 IDoV= 1 UseB2=F ITyADJ=14
 ICtDFT=  3500011 ScaDFX=  1.000000  1.000000  1.000000  1.000000
 FoFCou: FMM=F IPFlag=           0 FMFlag=      100000 FMFlg1=           0
         NFxFlg=           0 DoJE=T BraDBF=F KetDBF=T FulRan=T
         wScrn=  0.000000 ICntrl=     500 IOpCl=  0 I1Cent=   200000004 NGrid=           0
         NMat0=    1 NMatS0=      1 NMatT0=    0 NMatD0=    1 NMtDS0=    0 NMtDT0=    0
 Petite list used in FoFCou.
 Initial guess orbital symmetries:
 Alpha Orbitals:
       Occupied  (A') (A') (A') (A') (A") (A') (A') (A') (A') (A')
                 (A") (A') (A') (A') (A") (A') (A") (A') (A') (A')
                 (A') (A') (A") (A")
       Virtual   (A') (A') (A') (A') (A") (A') (A') (A') (A') (A")
                 (A") (A') (A') (A') (A') (A") (A') (A') (A") (A')
                 (A') (A") (A') (A") (A') (A') (A') (A') (A') (A")
                 (A") (A") (A") (A') (A') (A') (A') (A") (A') (A')
                 (A') (A') (A") (A') (A') (A") (A") (A') (A") (A')
                 (A') (A') (A") (A') (A") (A') (A") (A') (A') (A")
                 (A') (A') (A') (A") (A') (A') (A') (A') (A') (A')
 Beta  Orbitals:
       Occupied  (A') (A') (A') (A') (A") (A') (A') (A') (A') (A')
                 (A") (A') (A') (A') (A") (A') (A") (A') (A') (A')
                 (A') (A') (A")
       Virtual   (A") (A') (A') (A') (A') (A") (A') (A') (A') (A')
                 (A") (A") (A') (A') (A') (A') (A") (A') (A') (A")
                 (A') (A') (A") (A') (A") (A') (A') (A') (A') (A')
                 (A") (A") (A") (A") (A') (A') (A') (A') (A") (A')
                 (A') (A') (A') (A") (A') (A') (A") (A") (A') (A")
                 (A') (A') (A') (A") (A') (A") (A') (A") (A') (A')
                 (A") (A') (A') (A') (A") (A') (A') (A') (A') (A')
                 (A')
 The electronic state of the initial guess is 2-A".
 Initial guess <Sx>= 0.0000 <Sy>= 0.0000 <Sz>= 0.5000 <S**2>= 0.7500 S= 0.5000
 Keep R1 and R2 ints in memory in symmetry-blocked form, NReq=15545797.
 Requested convergence on RMS density matrix=1.00D-08 within  64 cycles.
 Requested convergence on MAX density matrix=1.00D-06.
 Requested convergence on             energy=1.00D-06.
 No special actions if energy rises.
 EnCoef did   100 forward-backward iterations
 EnCoef did   100 forward-backward iterations
 EnCoef did   100 forward-backward iterations
 EnCoef did   100 forward-backward iterations
 EnCoef did     9 forward-backward iterations
 EnCoef did    50 forward-backward iterations
 EnCoef did   100 forward-backward iterations
 EnCoef did   100 forward-backward iterations
 EnCoef did   100 forward-backward iterations
 EnCoef did   100 forward-backward iterations
 EnCoef did   100 forward-backward iterations
 Rare condition: small coef for last iteration:  0.834D-15
 EnCoef did   100 forward-backward iterations
 Rare condition: small coef for last iteration:  0.000D+00
 EnCoef did   100 forward-backward iterations
 EnCoef did   100 forward-backward iterations
 EnCoef did   100 forward-backward iterations
 EnCoef did   100 forward-backward iterations
 EnCoef did   100 forward-backward iterations
 EnCoef did   100 forward-backward iterations
 Rare condition: small coef for last iteration: -0.839D-15
 EnCoef did   100 forward-backward iterations
 EnCoef did   100 forward-backward iterations
 EnCoef did   100 forward-backward iterations
 EnCoef did   100 forward-backward iterations
 EnCoef did   100 forward-backward iterations
 Rare condition: small coef for last iteration: -0.864D-15
 EnCoef did   100 forward-backward iterations
 EnCoef did   100 forward-backward iterations
 EnCoef did   100 forward-backward iterations
 EnCoef did   100 forward-backward iterations
 EnCoef did   100 forward-backward iterations
 EnCoef did   100 forward-backward iterations
 EnCoef did   100 forward-backward iterations
 EnCoef did   100 forward-backward iterations
 EnCoef did   100 forward-backward iterations
 Rare condition: small coef for last iteration:  0.214D-15
 EnCoef did   100 forward-backward iterations
 EnCoef did   100 forward-backward iterations
 EnCoef did   100 forward-backward iterations
 EnCoef did   100 forward-backward iterations
 EnCoef did   100 forward-backward iterations
 EnCoef did   100 forward-backward iterations
 EnCoef did   100 forward-backward iterations
 EnCoef did   100 forward-backward iterations
 Rare condition: small coef for last iteration: -0.421D-15
 EnCoef did   100 forward-backward iterations
 EnCoef did   100 forward-backward iterations
 EnCoef did   100 forward-backward iterations
 EnCoef did    16 forward-backward iterations
 EnCoef did   100 forward-backward iterations
 EnCoef did   100 forward-backward iterations
 EnCoef did   100 forward-backward iterations
 Rare condition: small coef for last iteration:  0.642D-15
 EnCoef did   100 forward-backward iterations
 EnCoef did   100 forward-backward iterations
 >>>>>>>>>> Convergence criterion not met.
 SCF Done:  E(UB3LYP) =  -1792.39865617     A.U. after   65 cycles
            NFock= 64  Conv=0.58D-02     -V/T= 2.0026
 <Sx>= 0.0000 <Sy>= 0.0000 <Sz>= 0.5000 <S**2>= 0.7543 S= 0.5022
 <L.S>= 0.000000000000E+00
 Annihilation of the first spin contaminant:
 S**2 before annihilation     0.7543,   after     0.7500
 Keep R1 and R2 ints in memory in symmetry-blocked form, NReq=15602405.
 Gradient too large for Newton-Raphson -- use scaled steepest descent instead.
  Beta Gap=    -0.506 HL deriv= 6.05D-17 Rot set to   2.35D-01
     Minimum is close to point  3 DX= -1.70D-02 DF= -1.57D-04 DXR=  4.44D-02 DFR=  2.02D-03 which will be used.
 Gradient too large for Newton-Raphson -- use scaled steepest descent instead.
     Minimum is close to point  4 DX=  4.57D-02 DF= -2.23D-05 DXR=  5.40D-02 DFR=  2.95D-03 which will be used.
 Gradient too large for Newton-Raphson -- use scaled steepest descent instead.
 Gradient too large for Newton-Raphson -- use scaled steepest descent instead.
     Accept linear search using points  3 and  4.
 Gradient too large for Newton-Raphson -- use scaled steepest descent instead.
 Gradient too large for Newton-Raphson -- use scaled steepest descent instead.
     Accept linear search using points  1 and  2.
     Minimum is close to point  2 DX= -3.56D-02 DF= -5.88D-06 DXR=  4.12D-02 DFR=  1.65D-03 which will be used.
 Gradient too large for Newton-Raphson -- use scaled steepest descent instead.
     Accept linear search using points  1 and  2.
 Gradient too large for Newton-Raphson -- use scaled steepest descent instead.
     Minimum is close to point  2 DX=  4.41D-02 DF= -3.76D-06 DXR=  4.67D-02 DFR=  2.18D-03 which will be used.
 Gradient too large for Newton-Raphson -- use scaled steepest descent instead.
     Accept linear search using points  1 and  2.
 Gradient too large for Newton-Raphson -- use scaled steepest descent instead.
     Accept linear search using points  4 and  5.
 Gradient too large for Newton-Raphson -- use scaled steepest descent instead.
     Minimum is close to point  3 DX=  4.82D-03 DF= -2.30D-06 DXR=  1.58D-02 DFR=  2.50D-04 which will be used.
 Gradient too large for Newton-Raphson -- use scaled steepest descent instead.
     Minimum is close to point  2 DX=  1.11D-01 DF= -3.24D-05 DXR=  8.44D-02 DFR=  7.18D-03 which will be used.
 Gradient too large for Newton-Raphson -- use scaled steepest descent instead.
     Accept linear search using points  1 and  2.
 Gradient too large for Newton-Raphson -- use scaled steepest descent instead.
     Accept linear search using points  3 and  4.
 Gradient too large for Newton-Raphson -- use scaled steepest descent instead.
     Accept linear search using points  1 and  2.
 Gradient too large for Newton-Raphson -- use scaled steepest descent instead.
     Accept linear search using points  1 and  2.
 Gradient too large for Newton-Raphson -- use scaled steepest descent instead.
     Accept linear search using points  1 and  2.
 Gradient too large for Newton-Raphson -- use scaled steepest descent instead.
     Accept linear search using points  1 and  2.
 Gradient too large for Newton-Raphson -- use scaled steepest descent instead.
     Accept linear search using points  1 and  2.
 Gradient too large for Newton-Raphson -- use scaled steepest descent instead.
     Accept linear search using points  3 and  4.
 LinEq1:  Iter=  0 NonCon=     1 RMS=1.59D-03 Max=9.15D-02 NDo=     1
 AX will form     1 AO Fock derivatives at one time.
 LinEq1:  Iter=  1 NonCon=     1 RMS=1.12D-03 Max=3.53D-02 NDo=     1
 LinEq1:  Iter=  2 NonCon=     1 RMS=6.86D-04 Max=2.23D-02 NDo=     1
 LinEq1:  Iter=  3 NonCon=     1 RMS=5.54D-04 Max=1.54D-02 NDo=     1
 LinEq1:  Iter=  4 NonCon=     1 RMS=4.13D-04 Max=1.34D-02 NDo=     1
 LinEq1:  Iter=  5 NonCon=     1 RMS=3.24D-04 Max=6.93D-03 NDo=     1
 LinEq1:  Iter=  6 NonCon=     1 RMS=1.87D-04 Max=4.66D-03 NDo=     1
 LinEq1:  Iter=  7 NonCon=     1 RMS=9.34D-05 Max=1.96D-03 NDo=     1
 LinEq1:  Iter=  8 NonCon=     1 RMS=2.84D-05 Max=5.72D-04 NDo=     1
 LinEq1:  Iter=  9 NonCon=     1 RMS=8.78D-06 Max=2.31D-04 NDo=     1
 LinEq1:  Iter= 10 NonCon=     1 RMS=3.39D-06 Max=8.78D-05 NDo=     1
 LinEq1:  Iter= 11 NonCon=     1 RMS=1.10D-06 Max=2.31D-05 NDo=     1
 LinEq1:  Iter= 12 NonCon=     1 RMS=2.15D-07 Max=4.88D-06 NDo=     1
 LinEq1:  Iter= 13 NonCon=     1 RMS=6.55D-08 Max=1.26D-06 NDo=     1
 LinEq1:  Iter= 14 NonCon=     1 RMS=2.20D-08 Max=7.61D-07 NDo=     1
 LinEq1:  Iter= 15 NonCon=     1 RMS=8.55D-09 Max=1.89D-07 NDo=     1
 LinEq1:  Iter= 16 NonCon=     0 RMS=1.78D-09 Max=2.88D-08 NDo=     1
 Linear equations converged to 5.756D-09 5.756D-08 after    16 iterations.
     Minimum is close to point  2 DX=  1.05D-02 DF= -2.32D-09 DXR=  1.04D-02 DFR=  1.08D-04 which will be used.
 LinEq1:  Iter=  0 NonCon=     1 RMS=8.71D-06 Max=4.80D-04 NDo=     1
 LinEq1:  Iter=  1 NonCon=     1 RMS=4.51D-05 Max=1.65D-03 NDo=     1
 LinEq1:  Iter=  2 NonCon=     1 RMS=1.58D-05 Max=4.26D-04 NDo=     1
 LinEq1:  Iter=  3 NonCon=     1 RMS=1.30D-05 Max=3.25D-04 NDo=     1
 LinEq1:  Iter=  4 NonCon=     1 RMS=8.77D-06 Max=2.43D-04 NDo=     1
 LinEq1:  Iter=  5 NonCon=     1 RMS=6.75D-06 Max=1.75D-04 NDo=     1
 LinEq1:  Iter=  6 NonCon=     1 RMS=3.49D-06 Max=4.78D-05 NDo=     1
 LinEq1:  Iter=  7 NonCon=     1 RMS=1.56D-06 Max=6.02D-05 NDo=     1
 LinEq1:  Iter=  8 NonCon=     1 RMS=6.32D-07 Max=1.88D-05 NDo=     1
 LinEq1:  Iter=  9 NonCon=     1 RMS=1.30D-07 Max=1.82D-06 NDo=     1
 LinEq1:  Iter= 10 NonCon=     1 RMS=4.03D-08 Max=9.25D-07 NDo=     1
 LinEq1:  Iter= 11 NonCon=     1 RMS=1.93D-08 Max=6.42D-07 NDo=     1
 LinEq1:  Iter= 12 NonCon=     1 RMS=7.89D-09 Max=1.84D-07 NDo=     1
 LinEq1:  Iter= 13 NonCon=     1 RMS=1.29D-09 Max=1.95D-08 NDo=     1
 LinEq1:  Iter= 14 NonCon=     1 RMS=3.26D-10 Max=6.46D-09 NDo=     1
 LinEq1:  Iter= 15 NonCon=     0 RMS=7.91D-11 Max=1.22D-09 NDo=     1
 Linear equations converged to 3.569D-10 3.569D-09 after    15 iterations.
 Incorrect curvature in search direction -- initial direction reversed.
 LinEq1:  Iter=  0 NonCon=     1 RMS=2.92D-04 Max=1.65D-02 NDo=     1
 LinEq1:  Iter=  1 NonCon=     1 RMS=1.02D-03 Max=3.84D-02 NDo=     1
 LinEq1:  Iter=  2 NonCon=     1 RMS=3.70D-04 Max=9.96D-03 NDo=     1
 LinEq1:  Iter=  3 NonCon=     1 RMS=3.27D-04 Max=8.27D-03 NDo=     1
 LinEq1:  Iter=  4 NonCon=     1 RMS=2.02D-04 Max=5.63D-03 NDo=     1
 LinEq1:  Iter=  5 NonCon=     1 RMS=1.67D-04 Max=4.10D-03 NDo=     1
 LinEq1:  Iter=  6 NonCon=     1 RMS=7.97D-05 Max=1.16D-03 NDo=     1
 LinEq1:  Iter=  7 NonCon=     1 RMS=3.45D-05 Max=1.29D-03 NDo=     1
 LinEq1:  Iter=  8 NonCon=     1 RMS=1.42D-05 Max=4.47D-04 NDo=     1
 LinEq1:  Iter=  9 NonCon=     1 RMS=3.02D-06 Max=4.13D-05 NDo=     1
 LinEq1:  Iter= 10 NonCon=     1 RMS=9.15D-07 Max=1.56D-05 NDo=     1
 LinEq1:  Iter= 11 NonCon=     1 RMS=4.12D-07 Max=1.12D-05 NDo=     1
 LinEq1:  Iter= 12 NonCon=     1 RMS=1.68D-07 Max=3.77D-06 NDo=     1
 LinEq1:  Iter= 13 NonCon=     1 RMS=2.83D-08 Max=4.05D-07 NDo=     1
 LinEq1:  Iter= 14 NonCon=     1 RMS=7.19D-09 Max=1.43D-07 NDo=     1
 LinEq1:  Iter= 15 NonCon=     0 RMS=1.73D-09 Max=2.30D-08 NDo=     1
 Linear equations converged to 5.756D-09 5.756D-08 after    15 iterations.
 Incorrect curvature in search direction -- initial direction reversed.
     Minimum is close to point  2 DX= -1.25D-02 DF= -1.67D-10 DXR=  1.27D-02 DFR=  1.61D-04 which will be used.
 LinEq1:  Iter=  0 NonCon=     1 RMS=6.92D-04 Max=3.92D-02 NDo=     1
 LinEq1:  Iter=  1 NonCon=     1 RMS=2.06D-03 Max=7.74D-02 NDo=     1
 LinEq1:  Iter=  2 NonCon=     1 RMS=7.60D-04 Max=2.07D-02 NDo=     1
 LinEq1:  Iter=  3 NonCon=     1 RMS=6.84D-04 Max=1.75D-02 NDo=     1
 LinEq1:  Iter=  4 NonCon=     1 RMS=4.00D-04 Max=1.09D-02 NDo=     1
 LinEq1:  Iter=  5 NonCon=     1 RMS=3.43D-04 Max=8.27D-03 NDo=     1
 LinEq1:  Iter=  6 NonCon=     1 RMS=1.59D-04 Max=2.38D-03 NDo=     1
 LinEq1:  Iter=  7 NonCon=     1 RMS=6.66D-05 Max=2.39D-03 NDo=     1
 LinEq1:  Iter=  8 NonCon=     1 RMS=2.77D-05 Max=9.09D-04 NDo=     1
 LinEq1:  Iter=  9 NonCon=     1 RMS=6.12D-06 Max=8.12D-05 NDo=     1
 LinEq1:  Iter= 10 NonCon=     1 RMS=1.82D-06 Max=3.25D-05 NDo=     1
 LinEq1:  Iter= 11 NonCon=     1 RMS=7.57D-07 Max=1.98D-05 NDo=     1
 LinEq1:  Iter= 12 NonCon=     1 RMS=3.11D-07 Max=6.96D-06 NDo=     1
 LinEq1:  Iter= 13 NonCon=     1 RMS=5.67D-08 Max=7.33D-07 NDo=     1
 LinEq1:  Iter= 14 NonCon=     1 RMS=1.48D-08 Max=2.50D-07 NDo=     1
 LinEq1:  Iter= 15 NonCon=     0 RMS=3.64D-09 Max=4.81D-08 NDo=     1
 Linear equations converged to 5.756D-09 5.756D-08 after    15 iterations.
 Incorrect curvature in search direction -- initial direction reversed.
 LinEq1:  Iter=  0 NonCon=     1 RMS=1.60D-03 Max=9.09D-02 NDo=     1
 LinEq1:  Iter=  1 NonCon=     1 RMS=3.79D-03 Max=1.13D-01 NDo=     1
 LinEq1:  Iter=  2 NonCon=     1 RMS=1.44D-03 Max=3.91D-02 NDo=     1
 LinEq1:  Iter=  3 NonCon=     1 RMS=1.30D-03 Max=3.37D-02 NDo=     1
 LinEq1:  Iter=  4 NonCon=     1 RMS=7.05D-04 Max=1.83D-02 NDo=     1
 LinEq1:  Iter=  5 NonCon=     1 RMS=6.36D-04 Max=1.51D-02 NDo=     1
 LinEq1:  Iter=  6 NonCon=     1 RMS=2.88D-04 Max=4.43D-03 NDo=     1
 LinEq1:  Iter=  7 NonCon=     1 RMS=1.11D-04 Max=3.49D-03 NDo=     1
 LinEq1:  Iter=  8 NonCon=     1 RMS=4.58D-05 Max=1.61D-03 NDo=     1
 LinEq1:  Iter=  9 NonCon=     1 RMS=1.13D-05 Max=1.54D-04 NDo=     1
 LinEq1:  Iter= 10 NonCon=     1 RMS=3.34D-06 Max=7.24D-05 NDo=     1
 LinEq1:  Iter= 11 NonCon=     1 RMS=1.19D-06 Max=3.17D-05 NDo=     1
 LinEq1:  Iter= 12 NonCon=     1 RMS=4.40D-07 Max=1.54D-05 NDo=     1
 LinEq1:  Iter= 13 NonCon=     1 RMS=1.01D-07 Max=1.10D-06 NDo=     1
 LinEq1:  Iter= 14 NonCon=     1 RMS=2.76D-08 Max=4.74D-07 NDo=     1
 LinEq1:  Iter= 15 NonCon=     1 RMS=7.00D-09 Max=1.17D-07 NDo=     1
 LinEq1:  Iter= 16 NonCon=     0 RMS=1.71D-09 Max=3.99D-08 NDo=     1
 Linear equations converged to 5.756D-09 5.756D-08 after    16 iterations.
 Incorrect curvature in search direction -- initial direction reversed.
 Gradient too large for Newton-Raphson -- use scaled steepest descent instead.
 LinEq1:  Iter=  0 NonCon=     1 RMS=4.20D-04 Max=1.30D-02 NDo=     1
 LinEq1:  Iter=  1 NonCon=     1 RMS=4.81D-03 Max=2.32D-01 NDo=     1
 LinEq1:  Iter=  2 NonCon=     1 RMS=2.36D-03 Max=6.45D-02 NDo=     1
 LinEq1:  Iter=  3 NonCon=     1 RMS=2.26D-03 Max=7.52D-02 NDo=     1
 LinEq1:  Iter=  4 NonCon=     1 RMS=1.43D-03 Max=3.00D-02 NDo=     1
 LinEq1:  Iter=  5 NonCon=     1 RMS=1.33D-03 Max=2.28D-02 NDo=     1
 LinEq1:  Iter=  6 NonCon=     1 RMS=9.22D-04 Max=1.62D-02 NDo=     1
 LinEq1:  Iter=  7 NonCon=     1 RMS=2.76D-04 Max=8.38D-03 NDo=     1
 LinEq1:  Iter=  8 NonCon=     1 RMS=1.06D-04 Max=3.89D-03 NDo=     1
 LinEq1:  Iter=  9 NonCon=     1 RMS=2.50D-05 Max=4.08D-04 NDo=     1
 LinEq1:  Iter= 10 NonCon=     1 RMS=7.23D-06 Max=1.83D-04 NDo=     1
 LinEq1:  Iter= 11 NonCon=     1 RMS=2.36D-06 Max=7.73D-05 NDo=     1
 LinEq1:  Iter= 12 NonCon=     1 RMS=1.03D-06 Max=3.57D-05 NDo=     1
 LinEq1:  Iter= 13 NonCon=     1 RMS=2.35D-07 Max=2.40D-06 NDo=     1
 LinEq1:  Iter= 14 NonCon=     1 RMS=5.70D-08 Max=9.83D-07 NDo=     1
 LinEq1:  Iter= 15 NonCon=     1 RMS=1.67D-08 Max=2.88D-07 NDo=     1
 LinEq1:  Iter= 16 NonCon=     1 RMS=4.00D-09 Max=8.30D-08 NDo=     1
 LinEq1:  Iter= 17 NonCon=     0 RMS=1.15D-09 Max=3.80D-08 NDo=     1
 Linear equations converged to 5.756D-09 5.756D-08 after    17 iterations.
 Incorrect curvature in search direction -- initial direction reversed.
 LinEq1:  Iter=  0 NonCon=     1 RMS=2.74D-03 Max=1.54D-01 NDo=     1
 LinEq1:  Iter=  1 NonCon=     1 RMS=1.01D-02 Max=3.09D-01 NDo=     1
 LinEq1:  Iter=  2 NonCon=     1 RMS=3.83D-03 Max=9.73D-02 NDo=     1
 LinEq1:  Iter=  3 NonCon=     1 RMS=3.27D-03 Max=8.77D-02 NDo=     1
 LinEq1:  Iter=  4 NonCon=     1 RMS=1.97D-03 Max=5.08D-02 NDo=     1
 LinEq1:  Iter=  5 NonCon=     1 RMS=2.02D-03 Max=4.07D-02 NDo=     1
 LinEq1:  Iter=  6 NonCon=     1 RMS=1.41D-03 Max=3.00D-02 NDo=     1
 LinEq1:  Iter=  7 NonCon=     1 RMS=3.74D-04 Max=5.66D-03 NDo=     1
 LinEq1:  Iter=  8 NonCon=     1 RMS=1.07D-04 Max=3.80D-03 NDo=     1
 LinEq1:  Iter=  9 NonCon=     1 RMS=3.64D-05 Max=7.97D-04 NDo=     1
 LinEq1:  Iter= 10 NonCon=     1 RMS=1.24D-05 Max=3.25D-04 NDo=     1
 LinEq1:  Iter= 11 NonCon=     1 RMS=3.16D-06 Max=5.44D-05 NDo=     1
 LinEq1:  Iter= 12 NonCon=     1 RMS=9.13D-07 Max=2.66D-05 NDo=     1
 LinEq1:  Iter= 13 NonCon=     1 RMS=3.41D-07 Max=7.05D-06 NDo=     1
 LinEq1:  Iter= 14 NonCon=     1 RMS=8.61D-08 Max=1.41D-06 NDo=     1
 LinEq1:  Iter= 15 NonCon=     1 RMS=2.55D-08 Max=3.60D-07 NDo=     1
 LinEq1:  Iter= 16 NonCon=     1 RMS=6.61D-09 Max=1.24D-07 NDo=     1
 LinEq1:  Iter= 17 NonCon=     0 RMS=1.97D-09 Max=4.67D-08 NDo=     1
 Linear equations converged to 5.756D-09 5.756D-08 after    17 iterations.
 Incorrect curvature in search direction -- initial direction reversed.
 Gradient too large for Newton-Raphson -- use scaled steepest descent instead.
 Gradient too large for Newton-Raphson -- use scaled steepest descent instead.
 Gradient too large for Newton-Raphson -- use scaled steepest descent instead.
     Accept linear search using points  1 and  2.
 LinEq1:  Iter=  0 NonCon=     1 RMS=7.14D-04 Max=2.37D-02 NDo=     1
 LinEq1:  Iter=  1 NonCon=     1 RMS=4.94D-03 Max=2.54D-01 NDo=     1
 LinEq1:  Iter=  2 NonCon=     1 RMS=1.87D-03 Max=5.03D-02 NDo=     1
 LinEq1:  Iter=  3 NonCon=     1 RMS=6.58D-04 Max=1.31D-02 NDo=     1
 LinEq1:  Iter=  4 NonCon=     1 RMS=6.59D-04 Max=1.28D-02 NDo=     1
 LinEq1:  Iter=  5 NonCon=     1 RMS=3.51D-04 Max=8.64D-03 NDo=     1
 LinEq1:  Iter=  6 NonCon=     1 RMS=1.60D-04 Max=3.04D-03 NDo=     1
 LinEq1:  Iter=  7 NonCon=     1 RMS=2.15D-04 Max=6.05D-03 NDo=     1
 LinEq1:  Iter=  8 NonCon=     1 RMS=9.71D-05 Max=3.56D-03 NDo=     1
 LinEq1:  Iter=  9 NonCon=     1 RMS=2.58D-05 Max=6.46D-04 NDo=     1
 LinEq1:  Iter= 10 NonCon=     1 RMS=7.13D-06 Max=1.54D-04 NDo=     1
 LinEq1:  Iter= 11 NonCon=     1 RMS=2.16D-06 Max=6.37D-05 NDo=     1
 LinEq1:  Iter= 12 NonCon=     1 RMS=9.33D-07 Max=2.66D-05 NDo=     1
 LinEq1:  Iter= 13 NonCon=     1 RMS=2.06D-07 Max=2.72D-06 NDo=     1
 LinEq1:  Iter= 14 NonCon=     1 RMS=4.70D-08 Max=7.44D-07 NDo=     1
 LinEq1:  Iter= 15 NonCon=     1 RMS=1.30D-08 Max=2.13D-07 NDo=     1
 LinEq1:  Iter= 16 NonCon=     1 RMS=4.62D-09 Max=1.44D-07 NDo=     1
 LinEq1:  Iter= 17 NonCon=     0 RMS=1.42D-09 Max=2.55D-08 NDo=     1
 Linear equations converged to 5.756D-09 5.756D-08 after    17 iterations.
 Incorrect curvature in search direction -- initial direction reversed.
 Gradient too large for Newton-Raphson -- use scaled steepest descent instead.
     Minimum is close to point  3 DX=  8.69D-03 DF= -2.61D-07 DXR=  4.16D-02 DFR=  1.74D-03 which will be used.
 Gradient too large for Newton-Raphson -- use scaled steepest descent instead.
     Accept linear search using points  3 and  4.
 Gradient too large for Newton-Raphson -- use scaled steepest descent instead.
     Accept linear search using points  1 and  2.
 LinEq1:  Iter=  0 NonCon=     1 RMS=1.09D-03 Max=5.20D-02 NDo=     1
 LinEq1:  Iter=  1 NonCon=     1 RMS=9.70D-03 Max=3.14D-01 NDo=     1
 LinEq1:  Iter=  2 NonCon=     1 RMS=1.34D-03 Max=4.10D-02 NDo=     1
 LinEq1:  Iter=  3 NonCon=     1 RMS=9.41D-04 Max=2.61D-02 NDo=     1
 LinEq1:  Iter=  4 NonCon=     1 RMS=6.57D-04 Max=1.01D-02 NDo=     1
 LinEq1:  Iter=  5 NonCon=     1 RMS=2.67D-04 Max=4.64D-03 NDo=     1
 LinEq1:  Iter=  6 NonCon=     1 RMS=1.56D-04 Max=2.47D-03 NDo=     1
 LinEq1:  Iter=  7 NonCon=     1 RMS=1.28D-04 Max=4.45D-03 NDo=     1
 LinEq1:  Iter=  8 NonCon=     1 RMS=5.70D-05 Max=1.68D-03 NDo=     1
 LinEq1:  Iter=  9 NonCon=     1 RMS=1.49D-05 Max=3.22D-04 NDo=     1
 LinEq1:  Iter= 10 NonCon=     1 RMS=4.11D-06 Max=8.73D-05 NDo=     1
 LinEq1:  Iter= 11 NonCon=     1 RMS=1.52D-06 Max=4.90D-05 NDo=     1
 LinEq1:  Iter= 12 NonCon=     1 RMS=5.86D-07 Max=1.18D-05 NDo=     1
 LinEq1:  Iter= 13 NonCon=     1 RMS=1.00D-07 Max=1.67D-06 NDo=     1
 LinEq1:  Iter= 14 NonCon=     1 RMS=2.14D-08 Max=2.96D-07 NDo=     1
 LinEq1:  Iter= 15 NonCon=     1 RMS=5.69D-09 Max=1.06D-07 NDo=     1
 LinEq1:  Iter= 16 NonCon=     0 RMS=1.67D-09 Max=5.66D-08 NDo=     1
 Linear equations converged to 5.756D-09 5.756D-08 after    16 iterations.
     Minimum is close to point  5 DX=  3.97D-04 DF= -5.22D-08 DXR=  3.96D-03 DFR=  4.90D-05 which will be used.
 Gradient too large for Newton-Raphson -- use scaled steepest descent instead.
 Gradient too large for Newton-Raphson -- use scaled steepest descent instead.
 Gradient too large for Newton-Raphson -- use scaled steepest descent instead.
     Accept linear search using points  1 and  2.
 LinEq1:  Iter=  0 NonCon=     1 RMS=8.38D-04 Max=4.47D-02 NDo=     1
 LinEq1:  Iter=  1 NonCon=     1 RMS=5.26D-03 Max=1.87D-01 NDo=     1
 LinEq1:  Iter=  2 NonCon=     1 RMS=1.40D-03 Max=3.42D-02 NDo=     1
 LinEq1:  Iter=  3 NonCon=     1 RMS=1.15D-03 Max=3.42D-02 NDo=     1
 LinEq1:  Iter=  4 NonCon=     1 RMS=4.05D-04 Max=8.37D-03 NDo=     1
 LinEq1:  Iter=  5 NonCon=     1 RMS=2.44D-04 Max=6.49D-03 NDo=     1
 LinEq1:  Iter=  6 NonCon=     1 RMS=1.42D-04 Max=2.00D-03 NDo=     1
 LinEq1:  Iter=  7 NonCon=     1 RMS=6.76D-05 Max=2.28D-03 NDo=     1
 LinEq1:  Iter=  8 NonCon=     1 RMS=2.13D-05 Max=6.24D-04 NDo=     1
 LinEq1:  Iter=  9 NonCon=     1 RMS=6.37D-06 Max=1.33D-04 NDo=     1
 LinEq1:  Iter= 10 NonCon=     1 RMS=1.88D-06 Max=3.43D-05 NDo=     1
 LinEq1:  Iter= 11 NonCon=     1 RMS=6.31D-07 Max=1.89D-05 NDo=     1
 LinEq1:  Iter= 12 NonCon=     1 RMS=1.86D-07 Max=2.91D-06 NDo=     1
 LinEq1:  Iter= 13 NonCon=     1 RMS=3.55D-08 Max=4.45D-07 NDo=     1
 LinEq1:  Iter= 14 NonCon=     1 RMS=8.35D-09 Max=1.39D-07 NDo=     1
 LinEq1:  Iter= 15 NonCon=     0 RMS=2.03D-09 Max=3.58D-08 NDo=     1
 Linear equations converged to 5.756D-09 5.756D-08 after    15 iterations.
 LinEq1:  Iter=  0 NonCon=     1 RMS=1.64D-03 Max=9.42D-02 NDo=     1
 LinEq1:  Iter=  1 NonCon=     1 RMS=2.27D-03 Max=7.93D-02 NDo=     1
 LinEq1:  Iter=  2 NonCon=     1 RMS=5.70D-04 Max=1.64D-02 NDo=     1
 LinEq1:  Iter=  3 NonCon=     1 RMS=5.66D-04 Max=1.40D-02 NDo=     1
 LinEq1:  Iter=  4 NonCon=     1 RMS=2.45D-04 Max=5.61D-03 NDo=     1
 LinEq1:  Iter=  5 NonCon=     1 RMS=1.99D-04 Max=3.47D-03 NDo=     1
 LinEq1:  Iter=  6 NonCon=     1 RMS=1.05D-04 Max=1.73D-03 NDo=     1
 LinEq1:  Iter=  7 NonCon=     1 RMS=4.56D-05 Max=8.63D-04 NDo=     1
 LinEq1:  Iter=  8 NonCon=     1 RMS=8.69D-06 Max=2.46D-04 NDo=     1
 LinEq1:  Iter=  9 NonCon=     1 RMS=3.08D-06 Max=9.78D-05 NDo=     1
 LinEq1:  Iter= 10 NonCon=     1 RMS=7.24D-07 Max=1.26D-05 NDo=     1
 LinEq1:  Iter= 11 NonCon=     1 RMS=1.83D-07 Max=3.51D-06 NDo=     1
 LinEq1:  Iter= 12 NonCon=     1 RMS=5.44D-08 Max=1.38D-06 NDo=     1
 LinEq1:  Iter= 13 NonCon=     1 RMS=2.12D-08 Max=6.13D-07 NDo=     1
 LinEq1:  Iter= 14 NonCon=     1 RMS=5.44D-09 Max=8.24D-08 NDo=     1
 LinEq1:  Iter= 15 NonCon=     0 RMS=1.36D-09 Max=2.59D-08 NDo=     1
 Linear equations converged to 5.756D-09 5.756D-08 after    15 iterations.
 LinEq1:  Iter=  0 NonCon=     1 RMS=3.53D-04 Max=2.03D-02 NDo=     1
 LinEq1:  Iter=  1 NonCon=     1 RMS=2.95D-04 Max=1.06D-02 NDo=     1
 LinEq1:  Iter=  2 NonCon=     1 RMS=1.72D-04 Max=4.53D-03 NDo=     1
 LinEq1:  Iter=  3 NonCon=     1 RMS=1.38D-04 Max=3.36D-03 NDo=     1
 LinEq1:  Iter=  4 NonCon=     1 RMS=3.91D-05 Max=6.68D-04 NDo=     1
 LinEq1:  Iter=  5 NonCon=     1 RMS=1.79D-05 Max=4.08D-04 NDo=     1
 LinEq1:  Iter=  6 NonCon=     1 RMS=1.17D-05 Max=2.61D-04 NDo=     1
 LinEq1:  Iter=  7 NonCon=     1 RMS=8.95D-06 Max=1.68D-04 NDo=     1
 LinEq1:  Iter=  8 NonCon=     1 RMS=2.62D-06 Max=6.12D-05 NDo=     1
 LinEq1:  Iter=  9 NonCon=     1 RMS=9.19D-07 Max=1.76D-05 NDo=     1
 LinEq1:  Iter= 10 NonCon=     1 RMS=3.90D-07 Max=6.97D-06 NDo=     1
 LinEq1:  Iter= 11 NonCon=     1 RMS=9.33D-08 Max=1.42D-06 NDo=     1
 LinEq1:  Iter= 12 NonCon=     1 RMS=2.01D-08 Max=4.14D-07 NDo=     1
 LinEq1:  Iter= 13 NonCon=     1 RMS=7.92D-09 Max=2.21D-07 NDo=     1
 LinEq1:  Iter= 14 NonCon=     0 RMS=2.62D-09 Max=5.62D-08 NDo=     1
 Linear equations converged to 5.756D-09 5.756D-08 after    14 iterations.
     Minimum is close to point  2 DX=  3.03D-03 DF= -1.09D-11 DXR=  3.02D-03 DFR=  9.34D-06 which will be used.
 LinEq1:  Iter=  0 NonCon=     1 RMS=5.16D-07 Max=2.35D-05 NDo=     1
 LinEq1:  Iter=  1 NonCon=     1 RMS=4.48D-06 Max=1.57D-04 NDo=     1
 LinEq1:  Iter=  2 NonCon=     1 RMS=7.86D-07 Max=1.72D-05 NDo=     1
 LinEq1:  Iter=  3 NonCon=     1 RMS=6.32D-07 Max=1.21D-05 NDo=     1
 LinEq1:  Iter=  4 NonCon=     1 RMS=3.85D-07 Max=1.00D-05 NDo=     1
 LinEq1:  Iter=  5 NonCon=     1 RMS=2.30D-07 Max=6.31D-06 NDo=     1
 LinEq1:  Iter=  6 NonCon=     1 RMS=1.96D-07 Max=3.19D-06 NDo=     1
 LinEq1:  Iter=  7 NonCon=     1 RMS=9.21D-08 Max=1.49D-06 NDo=     1
 LinEq1:  Iter=  8 NonCon=     1 RMS=3.06D-08 Max=9.00D-07 NDo=     1
 LinEq1:  Iter=  9 NonCon=     1 RMS=1.37D-08 Max=2.92D-07 NDo=     1
 LinEq1:  Iter= 10 NonCon=     1 RMS=4.19D-09 Max=8.35D-08 NDo=     1
 LinEq1:  Iter= 11 NonCon=     1 RMS=1.07D-09 Max=2.38D-08 NDo=     1
 LinEq1:  Iter= 12 NonCon=     1 RMS=3.92D-10 Max=9.92D-09 NDo=     1
 LinEq1:  Iter= 13 NonCon=     1 RMS=1.49D-10 Max=2.48D-09 NDo=     1
 LinEq1:  Iter= 14 NonCon=     1 RMS=2.84D-11 Max=6.58D-10 NDo=     1
 LinEq1:  Iter= 15 NonCon=     0 RMS=5.84D-12 Max=1.00D-10 NDo=     1
 Linear equations converged to 3.991D-11 3.991D-10 after    15 iterations.
 SCF Done:  E(UB3LYP) =  -1792.49972662     a.u. after   44 cycles
            Convg  =    0.2090D-07                   326 Fock formations.
              S**2 =  0.7628                  -V/T =  2.0006
 <Sx>= 0.0000 <Sy>= 0.0000 <Sz>= 0.5000 <S**2>= 0.7628 S= 0.5064
 <L.S>= 0.000000000000E+00
 Annihilation of the first spin contaminant:
 S**2 before annihilation     0.7628,   after     0.7500

 **********************************************************************

            Population analysis using the SCF density.

 **********************************************************************

 Orbital symmetries:
 Alpha Orbitals:
       Occupied  (A') (A') (A') (A") (A') (A') (A') (A') (A') (A")
                 (A') (A') (A') (A') (A") (A') (A") (A') (A') (A')
                 (A') (A") (A') (A")
       Virtual   (A') (A') (A') (A') (A") (A') (A') (A') (A') (A")
                 (A') (A") (A') (A') (A') (A") (A') (A') (A") (A')
                 (A") (A') (A') (A") (A') (A') (A') (A') (A') (A")
                 (A") (A") (A') (A') (A") (A') (A') (A') (A") (A')
                 (A') (A") (A") (A') (A') (A') (A") (A') (A') (A")
                 (A') (A') (A") (A') (A") (A') (A") (A') (A') (A")
                 (A') (A') (A') (A") (A') (A') (A') (A') (A') (A')
 Beta  Orbitals:
       Occupied  (A') (A') (A') (A') (A") (A') (A') (A') (A') (A')
                 (A") (A') (A') (A') (A") (A') (A") (A') (A') (A")
                 (A') (A") (A')
       Virtual   (A') (A') (A') (A') (A') (A") (A') (A') (A') (A')
                 (A") (A') (A") (A') (A') (A') (A") (A') (A') (A")
                 (A') (A") (A') (A') (A") (A') (A') (A') (A') (A')
                 (A") (A") (A") (A") (A') (A') (A') (A') (A') (A")
                 (A') (A') (A") (A') (A") (A') (A") (A') (A') (A")
                 (A') (A') (A') (A") (A') (A") (A') (A") (A') (A')
                 (A") (A') (A') (A') (A") (A') (A') (A') (A') (A')
                 (A')
 The electronic state is 2-A'.
 Alpha  occ. eigenvalues -- -323.45475 -39.24960 -34.48253 -34.46506 -34.46414
 Alpha  occ. eigenvalues --  -19.56260 -19.56054  -4.78526  -3.30686  -3.27048
 Alpha  occ. eigenvalues --   -3.26873  -1.45127  -1.44052  -1.03005  -1.00884
 Alpha  occ. eigenvalues --   -0.87080  -0.79212  -0.77225  -0.76925  -0.76063
 Alpha  occ. eigenvalues --   -0.75577  -0.75529  -0.75446  -0.73152
 Alpha virt. eigenvalues --   -0.50517  -0.31674  -0.30379  -0.23520  -0.20688
 Alpha virt. eigenvalues --   -0.18828  -0.04191  -0.01978   0.04701   0.12300
 Alpha virt. eigenvalues --    0.28403   0.31347   0.34442   0.37497   0.43705
 Alpha virt. eigenvalues --    0.53010   0.68862   0.74751   0.83118   0.85395
 Alpha virt. eigenvalues --    0.98687   0.98735   0.99458   1.02133   1.20835
 Alpha virt. eigenvalues --    1.27438   1.54570   1.56497   1.72819   1.73804
 Alpha virt. eigenvalues --    2.28050   2.29117   2.35961   2.36106   2.37893
 Alpha virt. eigenvalues --    2.53542   2.69898   2.72005   2.73496   3.03742
 Alpha virt. eigenvalues --    3.04664   3.48069   3.48597   3.48636   3.48875
 Alpha virt. eigenvalues --    3.49159   3.49218   3.49380   4.27288   4.30436
 Alpha virt. eigenvalues --    4.35540   4.44398   4.65001   4.67618   6.70346
 Alpha virt. eigenvalues --    6.70444   6.72187   6.76280   6.80460   8.79937
 Alpha virt. eigenvalues --    8.85502   9.08383  31.48404  42.25992  42.29656
 Alpha virt. eigenvalues --   42.44514  49.26912  49.30042 183.55121 978.80694
  Beta  occ. eigenvalues -- -323.45473 -39.23759 -34.46614 -34.45828 -34.45810
  Beta  occ. eigenvalues --  -19.55922 -19.54867  -4.76063  -3.26107  -3.25388
  Beta  occ. eigenvalues --   -3.25279  -1.44829  -1.40503  -1.02902  -0.99915
  Beta  occ. eigenvalues --   -0.84799  -0.78630  -0.75964  -0.74597  -0.74147
  Beta  occ. eigenvalues --   -0.74146  -0.72673  -0.65455
  Beta virt. eigenvalues --   -0.62807  -0.49695  -0.31570  -0.29892  -0.23470
  Beta virt. eigenvalues --   -0.20424  -0.18678  -0.04101  -0.01660   0.04812
  Beta virt. eigenvalues --    0.12454   0.29067   0.31457   0.38248   0.38790
  Beta virt. eigenvalues --    0.43823   0.53700   0.69184   0.76609   0.83785
  Beta virt. eigenvalues --    0.85888   0.99337   0.99532   1.02196   1.02488
  Beta virt. eigenvalues --    1.21222   1.28567   1.54873   1.56663   1.72894
  Beta virt. eigenvalues --    1.73697   2.29218   2.32635   2.38264   2.40222
  Beta virt. eigenvalues --    2.40506   2.54122   2.70199   2.73230   2.74248
  Beta virt. eigenvalues --    3.04491   3.06124   3.48770   3.48827   3.50006
  Beta virt. eigenvalues --    3.50190   3.50212   3.51232   3.51776   4.30549
  Beta virt. eigenvalues --    4.33444   4.36767   4.45023   4.66242   4.67736
  Beta virt. eigenvalues --    6.71468   6.71582   6.72928   6.77061   6.85240
  Beta virt. eigenvalues --    8.81081   8.86475   9.11080  31.50002  42.26895
  Beta virt. eigenvalues --   42.30430  42.46685  49.28318  49.30176 183.55724
  Beta virt. eigenvalues --  978.80813
          Condensed to atoms (all electrons):
               1          2          3          4          5          6
     1  Cu  27.636029   0.005583   0.113466  -0.005846  -0.005794  -0.000363
     2  O    0.005583   8.061294   0.000000  -0.000001  -0.000007   0.250279
     3  O    0.113466   0.000000   8.329730   0.244945   0.245454   0.000000
     4  H   -0.005846  -0.000001   0.244945   0.194473  -0.008871   0.000000
     5  H   -0.005794  -0.000007   0.245454  -0.008871   0.197899   0.000000
     6  H   -0.000363   0.250279   0.000000   0.000000   0.000000   0.212768
     7  H   -0.000363   0.250279   0.000000   0.000000   0.000000  -0.011243
               7
     1  Cu  -0.000363
     2  O    0.250279
     3  O    0.000000
     4  H    0.000000
     5  H    0.000000
     6  H   -0.011243
     7  H    0.212768
          Atomic-Atomic Spin Densities.
               1          2          3          4          5          6
     1  Cu   0.440044  -0.000449  -0.009046   0.000130   0.000082   0.000034
     2  O   -0.000449   0.567305   0.000000   0.000000   0.000001  -0.006429
     3  O   -0.009046   0.000000   0.056326   0.000157   0.000181   0.000000
     4  H    0.000130   0.000000   0.000157  -0.000956  -0.000051   0.000000
     5  H    0.000082   0.000001   0.000181  -0.000051  -0.000970   0.000000
     6  H    0.000034  -0.006429   0.000000   0.000000   0.000000  -0.009678
     7  H    0.000034  -0.006429   0.000000   0.000000   0.000000   0.000590
               7
     1  Cu   0.000034
     2  O   -0.006429
     3  O    0.000000
     4  H    0.000000
     5  H    0.000000
     6  H    0.000590
     7  H   -0.009678
 Mulliken charges and spin densities:
               1          2
     1  Cu   1.257287   0.430829
     2  O   -0.567426   0.553999
     3  O   -0.933595   0.047617
     4  H    0.575301  -0.000721
     5  H    0.571319  -0.000758
     6  H    0.548558  -0.015483
     7  H    0.548558  -0.015483
 Sum of Mulliken charges =   2.00000   1.00000
 Mulliken charges and spin densities with hydrogens summed into heavy atoms:
               1          2
     1  Cu   1.257287   0.430829
     2  O    0.529689   0.523032
     3  O    0.213024   0.046138
 Electronic spatial extent (au):  <R**2>=            656.5353
 Charge=              2.0000 electrons
 Dipole moment (field-independent basis, Debye):
    X=             -1.6730    Y=             -3.6647    Z=              0.0000  Tot=              4.0285
 Quadrupole moment (field-independent basis, Debye-Ang):
   XX=             -2.8034   YY=             25.1516   ZZ=            -16.6729
   XY=             22.1292   XZ=              0.0000   YZ=              0.0000
 Traceless Quadrupole moment (field-independent basis, Debye-Ang):
   XX=             -4.6952   YY=             23.2598   ZZ=            -18.5646
   XY=             22.1292   XZ=              0.0000   YZ=              0.0000
 Octapole moment (field-independent basis, Debye-Ang**2):
  XXX=              8.3448  YYY=            -78.9482  ZZZ=              0.0000  XYY=            -47.6251
  XXY=            -14.5299  XXZ=              0.0000  XZZ=             -8.9169  YZZ=            -12.2823
  YYZ=              0.0000  XYZ=              0.0000
 Hexadecapole moment (field-independent basis, Debye-Ang**3):
 XXXX=            -99.3733 YYYY=             48.7774 ZZZZ=            -11.3010 XXXY=            -55.1514
 XXXZ=              0.0000 YYYX=            114.3509 YYYZ=              0.0000 ZZZX=              0.0000
 ZZZY=              0.0000 XXYY=             13.0865 XXZZ=            -22.5941 YYZZ=            -31.7870
 XXYZ=              0.0000 YYXZ=              0.0000 ZZXY=            -20.5120
 N-N= 1.444256966183D+02 E-N=-4.554295437804D+03  KE= 1.791475925389D+03
 Symmetry A'   KE= 1.561512791750D+03
 Symmetry A"   KE= 2.299631336385D+02
                          Isotropic Fermi Contact Couplings
        Atom                 a.u.       MegaHertz       Gauss      10(-4) cm-1
     1  Cu(63)            -0.13007    -154.27891     -55.05055     -51.46190
     2  O(17)              0.06185     -37.49176     -13.37799     -12.50590
     3  O(17)              0.02943     -17.83776      -6.36496      -5.95004
     4  H(1)              -0.00033      -1.49717      -0.53423      -0.49940
     5  H(1)              -0.00034      -1.50572      -0.53728      -0.50225
     6  H(1)              -0.00833     -37.24612     -13.29034     -12.42397
     7  H(1)              -0.00833     -37.24612     -13.29034     -12.42397
 --------------------------------------------------------
       Center         ----  Spin Dipole Couplings  ----
                      3XX-RR        3YY-RR        3ZZ-RR
 --------------------------------------------------------
     1   Atom        0.958851     -0.032163     -0.926688
     2   Atom        1.513046     -0.430282     -1.082764
     3   Atom        0.094688      0.008194     -0.102882
     4   Atom       -0.001773      0.012782     -0.011009
     5   Atom        0.012635     -0.001515     -0.011120
     6   Atom       -0.032986     -0.046078      0.079064
     7   Atom       -0.032986     -0.046078      0.079064
 --------------------------------------------------------
                        XY            XZ            YZ
 --------------------------------------------------------
     1   Atom        1.649571      0.000000      0.000000
     2   Atom       -1.307125      0.000000      0.000000
     3   Atom        0.146498      0.000000      0.000000
     4   Atom        0.002710      0.000000      0.000000
     5   Atom       -0.001254      0.000000      0.000000
     6   Atom       -0.009791     -0.021612     -0.046466
     7   Atom       -0.009791      0.021612      0.046466
 --------------------------------------------------------


 ---------------------------------------------------------------------------------
              Anisotropic Spin Dipole Couplings in Principal Axis System
 ---------------------------------------------------------------------------------

       Atom             a.u.   MegaHertz   Gauss  10(-4) cm-1        Axes

              Baa    -1.2590  -178.257   -63.607   -59.460 -0.5968  0.8024  0.0000
     1 Cu(63) Bbb    -0.9267  -131.202   -46.816   -43.764  0.0000  0.0000  1.0000
              Bcc     2.1857   309.459   110.423   103.224  0.8024  0.5968  0.0000
 
              Baa    -1.0873    78.679    28.074    26.244  0.4491  0.8935  0.0000
     2 O(17)  Bbb    -1.0828    78.348    27.957    26.134  0.0000  0.0000  1.0000
              Bcc     2.1701  -157.027   -56.031   -52.378  0.8935 -0.4491  0.0000
 
              Baa    -0.1029     7.444     2.656     2.483  0.0000  0.0000  1.0000
     3 O(17)  Bbb    -0.1013     7.331     2.616     2.445 -0.5987  0.8010  0.0000
              Bcc     0.2042   -14.775    -5.272    -4.928  0.8010  0.5987  0.0000
 
              Baa    -0.0110    -5.874    -2.096    -1.959  0.0000  0.0000  1.0000
     4 H(1)   Bbb    -0.0023    -1.206    -0.430    -0.402  0.9842 -0.1773  0.0000
              Bcc     0.0133     7.080     2.526     2.362  0.1773  0.9842  0.0000
 
              Baa    -0.0111    -5.933    -2.117    -1.979  0.0000  0.0000  1.0000
     5 H(1)   Bbb    -0.0016    -0.867    -0.309    -0.289  0.0876  0.9962  0.0000
              Bcc     0.0127     6.800     2.427     2.268  0.9962 -0.0876  0.0000
 
              Baa    -0.0690   -36.823   -13.139   -12.283  0.4254  0.8439  0.3269
     6 H(1)   Bbb    -0.0278   -14.828    -5.291    -4.946  0.8949 -0.4461 -0.0130
              Bcc     0.0968    51.651    18.430    17.229 -0.1349 -0.2981  0.9450
 
              Baa    -0.0690   -36.823   -13.139   -12.283  0.4254  0.8439 -0.3269
     7 H(1)   Bbb    -0.0278   -14.828    -5.291    -4.946  0.8949 -0.4461  0.0130
              Bcc     0.0968    51.651    18.430    17.229  0.1349  0.2981  0.9450
 

 ---------------------------------------------------------------------------------

 Calling FoFJK, ICntrl=      2127 FMM=F ISym2X=1 I1Cent= 0 IOpClX= 1 NMat=1 NMatS=1 NMatT=0.
 ***** Axes restored to original set *****
 -------------------------------------------------------------------
 Center     Atomic                   Forces (Hartrees/Bohr)
 Number     Number              X              Y              Z
 -------------------------------------------------------------------
      1       29          -0.003386765    0.000000006    0.001283274
      2        8           0.002566929    0.000000000   -0.073186130
      3        8          -0.040634585   -0.000000003    0.072297321
      4        1           0.022609140   -0.000000002   -0.038665573
      5        1           0.021368948   -0.000000001   -0.039759082
      6        1          -0.001261833    0.007163267    0.039015095
      7        1          -0.001261834   -0.007163267    0.039015095
 -------------------------------------------------------------------
 Cartesian Forces:  Max     0.073186130 RMS     0.030431632

 GradGradGradGradGradGradGradGradGradGradGradGradGradGradGradGradGradGrad
 Berny optimization.
 FormGI is forming the generalized inverse of G from B-inverse, IUseBI=4.
 Internal  Forces:  Max     0.051053571 RMS     0.020149885
 Search for a local minimum.
 Step number   1 out of a maximum of  100 on scan point     1 out of    26
 All quantities printed in internal units (Hartrees-Bohrs-Radians)
 Mixed Optimization -- RFO/linear search
 Second derivative matrix not updated -- first step.
 The second derivative matrix:
                          R1        R2        R3        R4        R5
           R1           0.00858
           R2           0.00000   0.19001
           R3           0.00000   0.00000   0.57681
           R4           0.00000   0.00000   0.00000   0.57681
           R5           0.00000   0.00000   0.00000   0.00000   0.57681
           R6           0.00000   0.00000   0.00000   0.00000   0.00000
           A1           0.00000   0.00000   0.00000   0.00000   0.00000
           A2           0.00000   0.00000   0.00000   0.00000   0.00000
           A3           0.00000   0.00000   0.00000   0.00000   0.00000
           A4           0.00000   0.00000   0.00000   0.00000   0.00000
           A5           0.00000   0.00000   0.00000   0.00000   0.00000
           A6           0.00000   0.00000   0.00000   0.00000   0.00000
           A7           0.00000   0.00000   0.00000   0.00000   0.00000
           D1           0.00000   0.00000   0.00000   0.00000   0.00000
           D2           0.00000   0.00000   0.00000   0.00000   0.00000
           D3           0.00000   0.00000   0.00000   0.00000   0.00000
           D4           0.00000   0.00000   0.00000   0.00000   0.00000
           D5           0.00000   0.00000   0.00000   0.00000   0.00000
           D6           0.00000   0.00000   0.00000   0.00000   0.00000
                          R6        A1        A2        A3        A4
           R6           0.57681
           A1           0.00000   0.25000
           A2           0.00000   0.00000   0.16000
           A3           0.00000   0.00000   0.00000   0.16000
           A4           0.00000   0.00000   0.00000   0.00000   0.16000
           A5           0.00000   0.00000   0.00000   0.00000   0.00000
           A6           0.00000   0.00000   0.00000   0.00000   0.00000
           A7           0.00000   0.00000   0.00000   0.00000   0.00000
           D1           0.00000   0.00000   0.00000   0.00000   0.00000
           D2           0.00000   0.00000   0.00000   0.00000   0.00000
           D3           0.00000   0.00000   0.00000   0.00000   0.00000
           D4           0.00000   0.00000   0.00000   0.00000   0.00000
           D5           0.00000   0.00000   0.00000   0.00000   0.00000
           D6           0.00000   0.00000   0.00000   0.00000   0.00000
                          A5        A6        A7        D1        D2
           A5           0.16000
           A6           0.00000   0.16000
           A7           0.00000   0.00000   0.16000
           D1           0.00000   0.00000   0.00000   0.00230
           D2           0.00000   0.00000   0.00000   0.00000   0.00230
           D3           0.00000   0.00000   0.00000   0.00000   0.00000
           D4           0.00000   0.00000   0.00000   0.00000   0.00000
           D5           0.00000   0.00000   0.00000   0.00000   0.00000
           D6           0.00000   0.00000   0.00000   0.00000   0.00000
                          D3        D4        D5        D6
           D3           0.03612
           D4           0.00000   0.03612
           D5           0.00000   0.00000   0.01690
           D6           0.00000   0.00000   0.00000   0.01690
 ITU=  0
     Eigenvalues ---    0.00230   0.01424   0.02039   0.03612   0.16000
     Eigenvalues ---    0.16000   0.16000   0.16000   0.19001   0.57681
     Eigenvalues ---    0.57681   0.57681   0.576811000.000001000.00000
     Eigenvalues --- 1000.000001000.000001000.000001000.00000
 RFO step:  Lambda=-3.52361717D-02 EMin= 2.30000000D-03
 Linear search not attempted -- first point.
 Maximum step size (   0.300) exceeded in Quadratic search.
    -- Step size scaled by   0.720
 Iteration  1 RMS(Cart)=  0.07469727 RMS(Int)=  0.00323394
 Iteration  2 RMS(Cart)=  0.00319264 RMS(Int)=  0.00034256
 Iteration  3 RMS(Cart)=  0.00000371 RMS(Int)=  0.00034254
 Iteration  4 RMS(Cart)=  0.00000000 RMS(Int)=  0.00034254
 Iteration  1 RMS(Cart)=  0.00000000 RMS(Int)=  0.00000000
 ClnCor:  largest displacement from symmetrization is 8.27D-06 for atom     7.
 Variable       Old X    -DE/DX   Delta X   Delta X   Delta X     New X
                                 (Linear)    (Quad)   (Total)
    R1        7.34197   0.00484   0.00000   0.00000   0.00000   7.34197
    R2        3.56225   0.00699   0.00000   0.02237   0.02237   3.58462
    R3        1.79524   0.01976   0.00000   0.02326   0.02326   1.81850
    R4        1.79524   0.01976   0.00000   0.02326   0.02326   1.81850
    R5        1.79524   0.01468   0.00000   0.01729   0.01729   1.81252
    R6        1.79524   0.01376   0.00000   0.01620   0.01620   1.81144
    A1        2.61799   0.00162   0.00000   0.00000   0.00000   2.61799
    A2        1.91063   0.02058   0.00000   0.07595   0.07591   1.98654
    A3        1.91063   0.02058   0.00000   0.07595   0.07591   1.98654
    A4        2.46192  -0.04116   0.00000  -0.15189  -0.15192   2.31000
    A5        1.91063   0.02493   0.00000   0.09200   0.09200   2.00263
    A6        1.91063   0.02612   0.00000   0.09639   0.09639   2.00702
    A7        2.46192  -0.05105   0.00000  -0.18839  -0.18839   2.27353
    D1        1.57080   0.00039   0.00000   0.00574   0.00665   1.57745
    D2       -1.57080  -0.00039   0.00000  -0.00574  -0.00665  -1.57745
    D3        3.14159   0.00000   0.00000   0.00000   0.00000   3.14159
    D4        0.00000   0.00000   0.00000   0.00000   0.00000   0.00000
    D5        3.14159  -0.00118   0.00000  -0.01722  -0.01648   3.12512
    D6        3.14159   0.00000   0.00000   0.00000   0.00000   3.14159
         Item               Value     Threshold  Converged?
 Maximum Force            0.051054     0.000450     NO 
 RMS     Force            0.021266     0.000300     NO 
 Maximum Displacement     0.185970     0.001800     NO 
 RMS     Displacement     0.075082     0.001200     NO 
 Predicted change in Energy=-1.783293D-02
 GradGradGradGradGradGradGradGradGradGradGradGradGradGradGradGradGradGrad

                          Input orientation:                          
 ---------------------------------------------------------------------
 Center     Atomic      Atomic             Coordinates (Angstroms)
 Number     Number       Type             X           Y           Z
 ---------------------------------------------------------------------
      1         29           0       -0.015392    0.000000    0.006577
      2          8           0       -0.005606    0.000000    3.891767
      3          8           0        0.928916    0.000000   -1.638569
      4          1           0        0.373274    0.000000   -2.420378
      5          1           0        1.884038    0.000000   -1.557329
      6          1           0       -0.010486    0.880314    4.280432
      7          1           0       -0.010486   -0.880314    4.280432
 ---------------------------------------------------------------------
                    Distance matrix (angstroms):
                    1          2          3          4          5
     1  Cu   0.000000
     2  O    3.885203   0.000000
     3  O    1.896898   5.608739   0.000000
     4  H    2.457879   6.323506   0.959147   0.000000
     5  H    2.460414   5.767443   0.958571   1.739902   0.000000
     6  H    4.363578   0.962308   6.057392   6.769275   6.200292
     7  H    4.363578   0.962308   6.057392   6.769275   6.200292
                    6          7
     6  H    0.000000
     7  H    1.760627   0.000000
 Stoichiometry    CuH4O2(2+,2)
 Framework group  CS[SG(CuH2O2),X(H2)]
 Deg. of freedom    10
 Full point group                 CS      NOp   2
 Largest Abelian subgroup         CS      NOp   2
 Largest concise Abelian subgroup CS      NOp   2
                         Standard orientation:                         
 ---------------------------------------------------------------------
 Center     Atomic      Atomic             Coordinates (Angstroms)
 Number     Number       Type             X           Y           Z
 ---------------------------------------------------------------------
      1         29           0        0.000000    0.501494    0.000000
      2          8           0       -1.561153   -3.056258    0.000000
      3          8           0        1.528607    1.624696    0.000000
      4          1           0        1.336309    2.564368    0.000000
      5          1           0        2.369429    1.164396    0.000000
      6          1           0       -1.722686   -3.409799    0.880314
      7          1           0       -1.722686   -3.409799   -0.880314
 ---------------------------------------------------------------------
 Rotational constants (GHZ):     40.8555039      1.5836649      1.5390734
 Standard basis: 6-311G(d) (5D, 7F)
 There are    74 symmetry adapted cartesian basis functions of A'  symmetry.
 There are    28 symmetry adapted cartesian basis functions of A"  symmetry.
 There are    67 symmetry adapted basis functions of A'  symmetry.
 There are    27 symmetry adapted basis functions of A"  symmetry.
    94 basis functions,   165 primitive gaussians,   102 cartesian basis functions
    24 alpha electrons       23 beta electrons
       nuclear repulsion energy       143.2346570569 Hartrees.
 NAtoms=    7 NActive=    7 NUniq=    6 SFac= 1.36D+00 NAtFMM=   60 NAOKFM=F Big=F
 Integral buffers will be    131072 words long.
 Raffenetti 2 integral format.
 Two-electron integral symmetry is turned on.
 One-electron integrals computed using PRISM.
 NBasis=    94 RedAO= T EigKep=  1.33D-02  NBF=    67    27
 NBsUse=    94 1.00D-06 EigRej= -1.00D+00 NBFU=    67    27
 Initial guess from the checkpoint file:  "pescuh2o2.chk"
 B after Tr=     0.000000    0.000000    0.000000
         Rot=    0.999993    0.000000    0.000000    0.003685 Ang=   0.42 deg.
 Initial guess orbital symmetries:
 Alpha Orbitals:
       Occupied  (A') (A') (A') (A") (A') (A') (A') (A') (A') (A")
                 (A') (A') (A') (A') (A") (A') (A") (A') (A') (A')
                 (A') (A") (A') (A")
       Virtual   (A') (A') (A') (A') (A') (A') (A') (A') (A') (A')
                 (A') (A') (A') (A') (A') (A') (A') (A') (A') (A')
                 (A') (A') (A') (A') (A') (A') (A') (A') (A') (A')
                 (A') (A') (A') (A') (A') (A') (A') (A') (A') (A')
                 (A') (A') (A') (A') (A') (A') (A') (A') (A') (A")
                 (A") (A") (A") (A") (A") (A") (A") (A") (A") (A")
                 (A") (A") (A") (A") (A") (A") (A") (A") (A") (A")
 Beta  Orbitals:
       Occupied  (A') (A') (A') (A') (A") (A') (A') (A') (A') (A')
                 (A") (A') (A') (A') (A") (A') (A") (A') (A') (A")
                 (A') (A") (A')
       Virtual   (A') (A') (A') (A') (A') (A') (A') (A') (A') (A')
                 (A') (A') (A') (A') (A') (A') (A') (A') (A') (A')
                 (A') (A') (A') (A') (A') (A') (A') (A') (A') (A')
                 (A') (A') (A') (A') (A') (A') (A') (A') (A') (A')
                 (A') (A') (A') (A') (A') (A') (A') (A') (A') (A')
                 (A") (A") (A") (A") (A") (A") (A") (A") (A") (A")
                 (A") (A") (A") (A") (A") (A") (A") (A") (A") (A")
                 (A")
 Initial guess <Sx>= 0.0000 <Sy>= 0.0000 <Sz>= 0.5000 <S**2>= 0.7629 S= 0.5064
 ExpMin= 4.08D-02 ExpMax= 3.37D+05 ExpMxC= 1.14D+04 IAcc=2 IRadAn=         4 AccDes= 0.00D+00
 Harris functional with IExCor=  402 and IRadAn=       4 diagonalized for initial guess.
 HarFok:  IExCor=  402 AccDes= 0.00D+00 IRadAn=         4 IDoV= 1 UseB2=F ITyADJ=14
 ICtDFT=  3500011 ScaDFX=  1.000000  1.000000  1.000000  1.000000
 FoFCou: FMM=F IPFlag=           0 FMFlag=      100000 FMFlg1=           0
         NFxFlg=           0 DoJE=T BraDBF=F KetDBF=T FulRan=T
         wScrn=  0.000000 ICntrl=     500 IOpCl=  0 I1Cent=   200000004 NGrid=           0
         NMat0=    1 NMatS0=      1 NMatT0=    0 NMatD0=    1 NMtDS0=    0 NMtDT0=    0
 Petite list used in FoFCou.
 Keep R1 and R2 ints in memory in symmetry-blocked form, NReq=15545797.
 Requested convergence on RMS density matrix=1.00D-08 within  64 cycles.
 Requested convergence on MAX density matrix=1.00D-06.
 Requested convergence on             energy=1.00D-06.
 No special actions if energy rises.
 EnCoef did     6 forward-backward iterations
 EnCoef did     4 forward-backward iterations
 SCF Done:  E(UB3LYP) =  -1792.52234038     A.U. after   18 cycles
            NFock= 18  Conv=0.63D-08     -V/T= 2.0006
 <Sx>= 0.0000 <Sy>= 0.0000 <Sz>= 0.5000 <S**2>= 0.7621 S= 0.5060
 <L.S>= 0.000000000000E+00
 Annihilation of the first spin contaminant:
 S**2 before annihilation     0.7621,   after     0.7500
 QCSCF skips out because SCF is already converged.
 Calling FoFJK, ICntrl=      2127 FMM=F ISym2X=1 I1Cent= 0 IOpClX= 1 NMat=1 NMatS=1 NMatT=0.
 ***** Axes restored to original set *****
 -------------------------------------------------------------------
 Center     Atomic                   Forces (Hartrees/Bohr)
 Number     Number              X              Y              Z
 -------------------------------------------------------------------
      1       29          -0.000027936    0.000000000   -0.004018671
      2        8           0.002515769    0.000000000   -0.057910218
      3        8          -0.030084085    0.000000000    0.052866077
      4        1           0.021419501    0.000000000   -0.022832114
      5        1           0.008661557    0.000000000   -0.030515014
      6        1          -0.001242403   -0.003800460    0.031204970
      7        1          -0.001242403    0.003800460    0.031204970
 -------------------------------------------------------------------
 Cartesian Forces:  Max     0.057910218 RMS     0.022930237

 GradGradGradGradGradGradGradGradGradGradGradGradGradGradGradGradGradGrad
 Berny optimization.
 Using GEDIIS/GDIIS optimizer.
 FormGI is forming the generalized inverse of G from B-inverse, IUseBI=4.
 Internal  Forces:  Max     0.037346779 RMS     0.015137570
 Search for a local minimum.
 Step number   2 out of a maximum of  100 on scan point     1 out of    26
 All quantities printed in internal units (Hartrees-Bohrs-Radians)
 Mixed Optimization -- RFO/linear search
 Update second derivatives using D2CorX and points    1    2
 DE= -2.26D-02 DEPred=-1.78D-02 R= 1.27D+00
 TightC=F SS=  1.41D+00  RLast= 3.01D-01 DXNew= 5.0454D-01 9.0177D-01
 Trust test= 1.27D+00 RLast= 3.01D-01 DXMaxT set to 5.05D-01
 The second derivative matrix:
                          R1        R2        R3        R4        R5
           R1           0.00860
           R2           0.00038   0.19617
           R3           0.00062   0.00813   0.58417
           R4           0.00062   0.00813   0.00736   0.58417
           R5           0.00050   0.00671   0.00655   0.00655   0.58254
           R6           0.00045   0.00600   0.00567   0.00567   0.00500
           A1           0.00001   0.00016   0.00026   0.00026   0.00021
           A2           0.00014  -0.00078  -0.00652  -0.00652  -0.00461
           A3           0.00014  -0.00079  -0.00653  -0.00653  -0.00462
           A4          -0.00027   0.00159   0.01309   0.01309   0.00925
           A5           0.00039   0.00329  -0.00104  -0.00104  -0.00010
           A6           0.00041   0.00359  -0.00087  -0.00087   0.00007
           A7          -0.00080  -0.00688   0.00191   0.00191   0.00003
           D1          -0.00001  -0.00027  -0.00044  -0.00044  -0.00035
           D2           0.00001   0.00027   0.00044   0.00044   0.00035
           D3           0.00000   0.00000   0.00000   0.00000   0.00000
           D4           0.00000   0.00000   0.00000   0.00000   0.00000
           D5          -0.00002  -0.00026  -0.00030  -0.00030  -0.00026
           D6           0.00000   0.00000   0.00000   0.00000   0.00000
                          R6        A1        A2        A3        A4
           R6           0.58116
           A1           0.00019   0.25000
           A2          -0.00442   0.00006   0.15118
           A3          -0.00443   0.00006  -0.00882   0.15117
           A4           0.00887  -0.00012   0.01766   0.01767   0.12463
           A5          -0.00038   0.00016  -0.00917  -0.00918   0.01838
           A6          -0.00024   0.00018  -0.00956  -0.00957   0.01916
           A7           0.00062  -0.00034   0.01873   0.01875  -0.03755
           D1          -0.00032  -0.00001  -0.00011  -0.00011   0.00021
           D2           0.00032   0.00001   0.00011   0.00011  -0.00021
           D3           0.00000   0.00000   0.00000   0.00000   0.00000
           D4           0.00000   0.00000   0.00000   0.00000   0.00000
           D5          -0.00023  -0.00001   0.00010   0.00010  -0.00020
           D6           0.00000   0.00000   0.00000   0.00000   0.00000
                          A5        A6        A7        D1        D2
           A5           0.15317
           A6          -0.00702   0.15279
           A7           0.01385   0.01423   0.13192
           D1          -0.00028  -0.00030   0.00058   0.00231
           D2           0.00028   0.00030  -0.00058  -0.00001   0.00231
           D3           0.00000   0.00000   0.00000   0.00000   0.00000
           D4           0.00000   0.00000   0.00000   0.00000   0.00000
           D5          -0.00007  -0.00008   0.00016   0.00001  -0.00001
           D6           0.00000   0.00000   0.00000   0.00000   0.00000
                          D3        D4        D5        D6
           D3           0.03612
           D4           0.00000   0.03612
           D5           0.00000   0.00000   0.01691
           D6           0.00000   0.00000   0.00000   0.01690
 ITU=  1  0
 Use linear search instead of GDIIS.
 Linear search step of   0.600 exceeds DXMaxT=   0.505 but not scaled.
 Quartic linear search produced a step of  2.00000.
 Iteration  1 RMS(Cart)=  0.11305280 RMS(Int)=  0.04135844
 Iteration  2 RMS(Cart)=  0.04342251 RMS(Int)=  0.00212970
 Iteration  3 RMS(Cart)=  0.00123481 RMS(Int)=  0.00170910
 Iteration  4 RMS(Cart)=  0.00000049 RMS(Int)=  0.00170910
 Iteration  1 RMS(Cart)=  0.00000000 RMS(Int)=  0.00000000
 ClnCor:  largest displacement from symmetrization is 1.85D-04 for atom     7.
 Variable       Old X    -DE/DX   Delta X   Delta X   Delta X     New X
                                 (Linear)    (Quad)   (Total)
    R1        7.34197   0.00449   0.00000   0.00000   0.00000   7.34197
    R2        3.58462   0.00043   0.04474   0.00000   0.04474   3.62936
    R3        1.81850   0.00913   0.04652   0.00000   0.04656   1.86505
    R4        1.81850   0.00913   0.04652   0.00000   0.04656   1.86505
    R5        1.81252   0.00619   0.03457   0.00000   0.03457   1.84710
    R6        1.81144   0.00606   0.03239   0.00000   0.03239   1.84383
    A1        2.61799   0.00147   0.00000   0.00000   0.00000   2.61799
    A2        1.98654   0.01823   0.15182   0.00000   0.15161   2.13815
    A3        1.98654   0.01823   0.15182   0.00000   0.15161   2.13815
    A4        2.31000  -0.03648  -0.30384   0.00000  -0.30403   2.00596
    A5        2.00263   0.01830   0.18400   0.00000   0.18400   2.18663
    A6        2.00702   0.01905   0.19278   0.00000   0.19278   2.19980
    A7        2.27353  -0.03735  -0.37678   0.00000  -0.37678   1.89675
    D1        1.57745   0.00063   0.01331   0.00000   0.01750   1.59495
    D2       -1.57745  -0.00063  -0.01331   0.00000  -0.01750  -1.59495
    D3        3.14159   0.00000   0.00000   0.00000   0.00000   3.14159
    D4        0.00000   0.00000   0.00000   0.00000   0.00000   0.00000
    D5        3.12512  -0.00088  -0.03295   0.00000  -0.02845   3.09667
    D6        3.14159   0.00000   0.00000   0.00000   0.00000   3.14159
         Item               Value     Threshold  Converged?
 Maximum Force            0.037347     0.000450     NO 
 RMS     Force            0.015962     0.000300     NO 
 Maximum Displacement     0.385141     0.001800     NO 
 RMS     Displacement     0.152341     0.001200     NO 
 Predicted change in Energy=-2.734592D-02
 GradGradGradGradGradGradGradGradGradGradGradGradGradGradGradGradGradGrad

                          Input orientation:                          
 ---------------------------------------------------------------------
 Center     Atomic      Atomic             Coordinates (Angstroms)
 Number     Number       Type             X           Y           Z
 ---------------------------------------------------------------------
      1         29           0       -0.043891    0.000000    0.018869
      2          8           0       -0.015453    0.000000    3.903968
      3          8           0        0.904194    0.000000   -1.651380
      4          1           0        0.489031    0.000000   -2.536270
      5          1           0        1.873713    0.000000   -1.761137
      6          1           0       -0.031672    0.832071    4.434489
      7          1           0       -0.031672   -0.832071    4.434489
 ---------------------------------------------------------------------
                    Distance matrix (angstroms):
                    1          2          3          4          5
     1  Cu   0.000000
     2  O    3.885203   0.000000
     3  O    1.920572   5.630954   0.000000
     4  H    2.610122   6.459966   0.977441   0.000000
     5  H    2.616415   5.971797   0.975712   1.586876   0.000000
     6  H    4.493350   0.986944   6.213372   7.039528   6.535183
     7  H    4.493350   0.986944   6.213372   7.039528   6.535183
                    6          7
     6  H    0.000000
     7  H    1.664143   0.000000
 Stoichiometry    CuH4O2(2+,2)
 Framework group  CS[SG(CuH2O2),X(H2)]
 Deg. of freedom    10
 Full point group                 CS      NOp   2
 Largest Abelian subgroup         CS      NOp   2
 Largest concise Abelian subgroup CS      NOp   2
                         Standard orientation:                         
 ---------------------------------------------------------------------
 Center     Atomic      Atomic             Coordinates (Angstroms)
 Number     Number       Type             X           Y           Z
 ---------------------------------------------------------------------
      1         29           0        0.000000    0.499616    0.000000
      2          8           0       -1.606741   -3.037783    0.000000
      3          8           0        1.562170    1.616854    0.000000
      4          1           0        1.557277    2.594282    0.000000
      5          1           0        2.488060    1.309051    0.000000
      6          1           0       -1.844387   -3.512377    0.832071
      7          1           0       -1.844387   -3.512377   -0.832071
 ---------------------------------------------------------------------
 Rotational constants (GHZ):     40.9124244      1.5574466      1.5128676
 Standard basis: 6-311G(d) (5D, 7F)
 There are    74 symmetry adapted cartesian basis functions of A'  symmetry.
 There are    28 symmetry adapted cartesian basis functions of A"  symmetry.
 There are    67 symmetry adapted basis functions of A'  symmetry.
 There are    27 symmetry adapted basis functions of A"  symmetry.
    94 basis functions,   165 primitive gaussians,   102 cartesian basis functions
    24 alpha electrons       23 beta electrons
       nuclear repulsion energy       141.0516650259 Hartrees.
 NAtoms=    7 NActive=    7 NUniq=    6 SFac= 1.36D+00 NAtFMM=   60 NAOKFM=F Big=F
 Integral buffers will be    131072 words long.
 Raffenetti 2 integral format.
 Two-electron integral symmetry is turned on.
 One-electron integrals computed using PRISM.
 NBasis=    94 RedAO= T EigKep=  1.33D-02  NBF=    67    27
 NBsUse=    94 1.00D-06 EigRej= -1.00D+00 NBFU=    67    27
 Initial guess from the checkpoint file:  "pescuh2o2.chk"
 B after Tr=     0.000000    0.000000    0.000000
         Rot=    0.999975    0.000000    0.000000    0.007110 Ang=   0.81 deg.
 Initial guess orbital symmetries:
 Alpha Orbitals:
       Occupied  (A') (A') (A') (A") (A') (A') (A') (A') (A') (A")
                 (A') (A') (A') (A') (A") (A') (A") (A') (A') (A')
                 (A') (A") (A') (A")
       Virtual   (A') (A') (A') (A') (A') (A') (A') (A') (A') (A')
                 (A') (A') (A') (A') (A') (A') (A') (A') (A') (A')
                 (A') (A') (A') (A') (A') (A') (A') (A') (A') (A')
                 (A') (A') (A') (A') (A') (A') (A') (A') (A') (A')
                 (A') (A') (A') (A') (A') (A') (A') (A') (A') (A")
                 (A") (A") (A") (A") (A") (A") (A") (A") (A") (A")
                 (A") (A") (A") (A") (A") (A") (A") (A") (A") (A")
 Beta  Orbitals:
       Occupied  (A') (A') (A') (A') (A") (A') (A') (A') (A') (A')
                 (A") (A') (A') (A') (A") (A') (A") (A') (A') (A")
                 (A') (A") (A')
       Virtual   (A') (A') (A') (A') (A') (A') (A') (A') (A') (A')
                 (A') (A') (A') (A') (A') (A') (A') (A') (A') (A')
                 (A') (A') (A') (A') (A') (A') (A') (A') (A') (A')
                 (A') (A') (A') (A') (A') (A') (A') (A') (A') (A')
                 (A') (A') (A') (A') (A') (A') (A') (A') (A') (A')
                 (A") (A") (A") (A") (A") (A") (A") (A") (A") (A")
                 (A") (A") (A") (A") (A") (A") (A") (A") (A") (A")
                 (A")
 Initial guess <Sx>= 0.0000 <Sy>= 0.0000 <Sz>= 0.5000 <S**2>= 0.7622 S= 0.5061
 ExpMin= 4.08D-02 ExpMax= 3.37D+05 ExpMxC= 1.14D+04 IAcc=2 IRadAn=         4 AccDes= 0.00D+00
 Harris functional with IExCor=  402 and IRadAn=       4 diagonalized for initial guess.
 HarFok:  IExCor=  402 AccDes= 0.00D+00 IRadAn=         4 IDoV= 1 UseB2=F ITyADJ=14
 ICtDFT=  3500011 ScaDFX=  1.000000  1.000000  1.000000  1.000000
 FoFCou: FMM=F IPFlag=           0 FMFlag=      100000 FMFlg1=           0
         NFxFlg=           0 DoJE=T BraDBF=F KetDBF=T FulRan=T
         wScrn=  0.000000 ICntrl=     500 IOpCl=  0 I1Cent=   200000004 NGrid=           0
         NMat0=    1 NMatS0=      1 NMatT0=    0 NMatD0=    1 NMtDS0=    0 NMtDT0=    0
 Petite list used in FoFCou.
 Keep R1 and R2 ints in memory in symmetry-blocked form, NReq=15545797.
 Requested convergence on RMS density matrix=1.00D-08 within  64 cycles.
 Requested convergence on MAX density matrix=1.00D-06.
 Requested convergence on             energy=1.00D-06.
 No special actions if energy rises.
 SCF Done:  E(UB3LYP) =  -1792.54538663     A.U. after   19 cycles
            NFock= 19  Conv=0.91D-08     -V/T= 2.0007
 <Sx>= 0.0000 <Sy>= 0.0000 <Sz>= 0.5000 <S**2>= 0.7608 S= 0.5054
 <L.S>= 0.000000000000E+00
 Annihilation of the first spin contaminant:
 S**2 before annihilation     0.7608,   after     0.7500
 QCSCF skips out because SCF is already converged.
 Calling FoFJK, ICntrl=      2127 FMM=F ISym2X=1 I1Cent= 0 IOpClX= 1 NMat=1 NMatS=1 NMatT=0.
 ***** Axes restored to original set *****
 -------------------------------------------------------------------
 Center     Atomic                   Forces (Hartrees/Bohr)
 Number     Number              X              Y              Z
 -------------------------------------------------------------------
      1       29           0.004538005    0.000000000   -0.011685899
      2        8           0.001034393    0.000000000   -0.007592733
      3        8          -0.001130172    0.000000000   -0.000267938
[...]
           A7         108.63135 108.58395 108.54125 108.47850 108.38806
           D1         -86.47108 -87.10787 -87.68830 -87.80936 -87.10884
           D2          86.43611  87.16166  87.66279  87.76728  87.10097
           D3         -82.78548 -82.50457 -82.49815 -82.37122 -82.95610
           D4          82.73510  82.54386  82.32340  82.68649  82.94763
           D5         173.92553 175.08329 176.00907 176.20583 175.04270
           D6         167.52340 167.11785 166.92953 167.14589 167.89671
                          21        22        23        24        25
     Eigenvalues --  **************************************************
           R1           1.88520   1.78520   1.68520   1.58520   1.48520
           R2           1.85008   1.85183   1.85110   1.84897   1.84679
           R3           0.97770   0.97922   0.98161   0.98511   0.99002
           R4           0.97771   0.97922   0.98162   0.98511   0.99002
           R5           0.97802   0.97807   0.97783   0.97751   0.97718
           R6           0.97802   0.97807   0.97783   0.97751   0.97718
           A1         150.00000 150.00000 150.00000 150.00000 150.00000
           A2         125.66550 125.71487 126.08129 126.61297 127.31248
           A3         125.66044 125.73971 126.08340 126.61369 127.31211
           A4         108.21265 107.84707 107.15274 106.12618 104.73836
           A5         125.52915 125.78388 125.84507 125.82938 125.79235
           A6         125.51848 125.78512 125.84429 125.82679 125.78428
           A7         108.18478 108.04824 108.02903 108.06606 108.12180
           D1         -85.61867 -84.58237 -84.71120 -84.76925 -84.71371
           D2          85.65595  84.66145  84.58604  84.70933  84.71473
           D3         -84.41737 -86.04673 -86.56628 -86.59769 -86.46543
           D4          84.34513  85.99062  86.59878  86.61620  86.46823
           D5         172.54466 170.84291 170.96296 171.22385 171.32200
           D6         170.38925 173.21228 174.17722 174.21627 173.97259
                          26
     Eigenvalues --  **********
           R1           1.38520
           R2           1.84584
           R3           0.99710
           R4           0.99710
           R5           0.97688
           R6           0.97688
           A1         150.00000
           A2         128.22773
           A3         128.23042
           A4         102.87534
           A5         125.75892
           A6         125.74512
           A7         108.17259
           D1         -84.61726
           D2          84.38877
           D3         -86.23925
           D4          86.44792
           D5         171.16043
           D6         173.75775
                          Input orientation:                          
 ---------------------------------------------------------------------
 Center     Atomic      Atomic             Coordinates (Angstroms)
 Number     Number       Type             X           Y           Z
 ---------------------------------------------------------------------
      1         29           0        0.069634    0.326577    1.090927
      2          8           0        0.127143    0.126479    2.460395
      3          8           0        0.692532   -0.045011   -0.606436
      4          1           0        1.444895    0.395121   -1.047489
      5          1           0        0.392682   -0.779655   -1.176237
      6          1           0       -0.309952   -0.590505    2.998075
      7          1           0        0.727324    0.566993    3.123680
 ---------------------------------------------------------------------
                    Distance matrix (angstroms):
                    1          2          3          4          5
     1  Cu   0.000000
     2  O    1.385203   0.000000
     3  O    1.845839   3.123224   0.000000
     4  H    2.543397   3.756846   0.976880   0.000000
     5  H    2.543254   3.757217   0.976875   1.582349   0.000000
     6  H    2.149962   0.997105   3.780878   4.518577   4.237258
     7  H    2.149986   0.997104   3.780149   4.235929   4.518266
                    6          7
     6  H    0.000000
     7  H    1.559333   0.000000
 Stoichiometry    CuH4O2(2+,2)
 Framework group  C1[X(CuH4O2)]
 Deg. of freedom    15
 Full point group                 C1      NOp   1
 Largest Abelian subgroup         C1      NOp   1
 Largest concise Abelian subgroup C1      NOp   1
                         Standard orientation:                         
 ---------------------------------------------------------------------
 Center     Atomic      Atomic             Coordinates (Angstroms)
 Number     Number       Type             X           Y           Z
 ---------------------------------------------------------------------
      1         29           0       -0.099446    0.182779    0.008464
      2          8           0       -1.415723   -0.248273   -0.011457
      3          8           0        1.707059   -0.195842   -0.009052
      4          1           0        2.255088   -0.400304    0.773351
      5          1           0        2.255479   -0.324376   -0.807175
      6          1           0       -1.979134   -0.474003   -0.802551
      7          1           0       -1.978192   -0.548980    0.754977
 ---------------------------------------------------------------------
 Rotational constants (GHZ):     73.0556310      5.0582215      4.9616916

 **********************************************************************

            Population analysis using the SCF density.

 **********************************************************************

 Orbital symmetries:
 Alpha Orbitals:
       Occupied  (A) (A) (A) (A) (A) (A) (A) (A) (A) (A) (A) (A)
                 (A) (A) (A) (A) (A) (A) (A) (A) (A) (A) (A) (A)
       Virtual   (A) (A) (A) (A) (A) (A) (A) (A) (A) (A) (A) (A)
                 (A) (A) (A) (A) (A) (A) (A) (A) (A) (A) (A) (A)
                 (A) (A) (A) (A) (A) (A) (A) (A) (A) (A) (A) (A)
                 (A) (A) (A) (A) (A) (A) (A) (A) (A) (A) (A) (A)
                 (A) (A) (A) (A) (A) (A) (A) (A) (A) (A) (A) (A)
                 (A) (A) (A) (A) (A) (A) (A) (A) (A) (A)
 Beta  Orbitals:
       Occupied  (A) (A) (A) (A) (A) (A) (A) (A) (A) (A) (A) (A)
                 (A) (A) (A) (A) (A) (A) (A) (A) (A) (A) (A)
       Virtual   (A) (A) (A) (A) (A) (A) (A) (A) (A) (A) (A) (A)
                 (A) (A) (A) (A) (A) (A) (A) (A) (A) (A) (A) (A)
                 (A) (A) (A) (A) (A) (A) (A) (A) (A) (A) (A) (A)
                 (A) (A) (A) (A) (A) (A) (A) (A) (A) (A) (A) (A)
                 (A) (A) (A) (A) (A) (A) (A) (A) (A) (A) (A) (A)
                 (A) (A) (A) (A) (A) (A) (A) (A) (A) (A) (A)
 The electronic state is 2-A.
 Alpha  occ. eigenvalues -- -323.58849 -39.41187 -34.64469 -34.63205 -34.61072
 Alpha  occ. eigenvalues --  -19.71716 -19.62635  -4.94750  -3.48451  -3.44238
 Alpha  occ. eigenvalues --   -3.40034  -1.62299  -1.50723  -1.14492  -1.12883
 Alpha  occ. eigenvalues --   -1.04197  -1.02232  -0.94950  -0.89501  -0.89322
 Alpha  occ. eigenvalues --   -0.88199  -0.85775  -0.82163  -0.80234
 Alpha virt. eigenvalues --   -0.45453  -0.37483  -0.33623  -0.30664  -0.27081
 Alpha virt. eigenvalues --   -0.19776  -0.18292  -0.04277  -0.02755   0.01663
 Alpha virt. eigenvalues --    0.14463   0.23605   0.28888   0.28993   0.38457
 Alpha virt. eigenvalues --    0.39246   0.58869   0.68183   0.87298   0.88526
 Alpha virt. eigenvalues --    0.93574   0.96602   1.01877   1.10043   1.20131
 Alpha virt. eigenvalues --    1.53220   1.54483   1.59484   1.59864   1.63782
 Alpha virt. eigenvalues --    2.12660   2.15215   2.23396   2.25738   2.33597
 Alpha virt. eigenvalues --    2.49656   2.63763   2.65626   2.67487   2.92879
 Alpha virt. eigenvalues --    3.15101   3.38225   3.38634   3.38726   3.39297
 Alpha virt. eigenvalues --    3.53763   3.62898   3.70881   4.23886   4.26308
 Alpha virt. eigenvalues --    4.41436   4.47861   4.50504   5.34987   6.57957
 Alpha virt. eigenvalues --    6.57974   6.69629   6.76950   7.00519   8.83063
 Alpha virt. eigenvalues --    8.87727   9.52714  31.52811  42.21512  42.25987
 Alpha virt. eigenvalues --   42.71882  49.20030  49.23835 183.55381 978.82477
  Beta  occ. eigenvalues -- -323.58832 -39.39127 -34.62007 -34.61226 -34.60495
  Beta  occ. eigenvalues --  -19.71134 -19.62297  -4.90616  -3.42022  -3.39131
  Beta  occ. eigenvalues --   -3.38619  -1.60860  -1.49957  -1.13041  -1.12283
  Beta  occ. eigenvalues --   -1.01959  -0.98082  -0.93851  -0.87312  -0.87264
  Beta  occ. eigenvalues --   -0.86245  -0.81222  -0.79952
  Beta virt. eigenvalues --   -0.64727  -0.44941  -0.37218  -0.33458  -0.30396
  Beta virt. eigenvalues --   -0.26991  -0.19578  -0.18247  -0.04195  -0.02518
  Beta virt. eigenvalues --    0.01783   0.16050   0.24529   0.29290   0.29975
  Beta virt. eigenvalues --    0.38718   0.39473   0.59648   0.68753   0.88015
  Beta virt. eigenvalues --    0.89711   0.94980   1.00131   1.02383   1.11255
  Beta virt. eigenvalues --    1.20722   1.54586   1.54895   1.59665   1.59897
  Beta virt. eigenvalues --    1.63920   2.14090   2.16833   2.24899   2.26647
  Beta virt. eigenvalues --    2.34709   2.51146   2.64369   2.66072   2.68601
  Beta virt. eigenvalues --    2.93132   3.16964   3.39237   3.39437   3.41161
  Beta virt. eigenvalues --    3.41797   3.56964   3.64727   3.71827   4.25116
  Beta virt. eigenvalues --    4.28589   4.42004   4.48369   4.50793   5.36413
  Beta virt. eigenvalues --    6.59615   6.59670   6.77361   6.78584   7.01900
  Beta virt. eigenvalues --    8.86267   8.88702   9.56315  31.55539  42.24154
  Beta virt. eigenvalues --   42.26814  42.74931  49.20585  49.24200 183.56424
  Beta virt. eigenvalues --  978.82692
          Condensed to atoms (all electrons):
               1          2          3          4          5          6
     1  Cu  27.454267   0.046498   0.105581  -0.006088  -0.006083  -0.013295
     2  O    0.046498   8.368678  -0.004439   0.000124   0.000123   0.226047
     3  O    0.105581  -0.004439   8.300637   0.244860   0.244851   0.000244
     4  H   -0.006088   0.000124   0.244860   0.207774  -0.014887  -0.000008
     5  H   -0.006083   0.000123   0.244851  -0.014887   0.207798   0.000060
     6  H   -0.013295   0.226047   0.000244  -0.000008   0.000060   0.208412
     7  H   -0.013328   0.226070   0.000245   0.000060  -0.000008  -0.014618
               7
     1  Cu  -0.013328
     2  O    0.226070
     3  O    0.000245
     4  H    0.000060
     5  H   -0.000008
     6  H   -0.014618
     7  H    0.208415
          Atomic-Atomic Spin Densities.
               1          2          3          4          5          6
     1  Cu   0.759168  -0.063046  -0.017791   0.000393   0.000393   0.000599
     2  O   -0.063046   0.301015  -0.003425   0.000027   0.000026  -0.002198
     3  O   -0.017791  -0.003425   0.131135  -0.001324  -0.001324  -0.000031
     4  H    0.000393   0.000027  -0.001324  -0.001952   0.000236   0.000000
     5  H    0.000393   0.000026  -0.001324   0.000236  -0.001950  -0.000002
     6  H    0.000599  -0.002198  -0.000031   0.000000  -0.000002  -0.005305
     7  H    0.000600  -0.002201  -0.000031  -0.000003   0.000000   0.000702
               7
     1  Cu   0.000600
     2  O   -0.002201
     3  O   -0.000031
     4  H   -0.000003
     5  H    0.000000
     6  H    0.000702
     7  H   -0.005313
 Mulliken charges and spin densities:
               1          2
     1  Cu   1.432448   0.680314
     2  O   -0.863102   0.230199
     3  O   -0.891979   0.107209
     4  H    0.568166  -0.002623
     5  H    0.568146  -0.002621
     6  H    0.593158  -0.006235
     7  H    0.593164  -0.006244
 Sum of Mulliken charges =   2.00000   1.00000
 Mulliken charges and spin densities with hydrogens summed into heavy atoms:
               1          2
     1  Cu   1.432448   0.680314
     2  O    0.323220   0.217720
     3  O    0.244333   0.101966
 Electronic spatial extent (au):  <R**2>=            242.5510
 Charge=              2.0000 electrons
 Dipole moment (field-independent basis, Debye):
    X=             -0.7978    Y=             -1.8054    Z=             -0.0851  Tot=              1.9757
 Quadrupole moment (field-independent basis, Debye-Ang):
   XX=              8.9950   YY=            -19.7257   ZZ=            -14.5208
   XY=              1.1925   XZ=              0.0562   YZ=             -0.2543
 Traceless Quadrupole moment (field-independent basis, Debye-Ang):
   XX=             17.4122   YY=            -11.3085   ZZ=             -6.1037
   XY=              1.1925   XZ=              0.0562   YZ=             -0.2543
 Octapole moment (field-independent basis, Debye-Ang**2):
  XXX=              6.1653  YYY=              3.7189  ZZZ=             -0.2361  XYY=             -2.7304
  XXY=            -15.8574  XXZ=             -0.7530  XZZ=             -0.1651  YZZ=             -1.6626
  YYZ=              0.3389  XYZ=             -0.1216
 Hexadecapole moment (field-independent basis, Debye-Ang**3):
 XXXX=            -34.6376 YYYY=            -20.1833 ZZZZ=            -12.4583 XXXY=              0.5238
 XXXZ=              0.0329 YYYX=              1.2682 YYYZ=             -0.2606 ZZZX=              0.1043
 ZZZY=             -0.1079 XXYY=            -31.4941 XXZZ=             -6.6589 YYZZ=             -4.8976
 XXYZ=             -1.2024 YYXZ=             -0.0128 ZZXY=              0.7466
 N-N= 2.151370711096D+02 E-N=-4.690123732595D+03  KE= 1.792493719045D+03
                          Isotropic Fermi Contact Couplings
        Atom                 a.u.       MegaHertz       Gauss      10(-4) cm-1
     1  Cu(63)            -0.05290     -62.74920     -22.39048     -20.93088
     2  O(17)              0.04854     -29.42678     -10.50021      -9.81572
     3  O(17)              0.04384     -26.57708      -9.48336      -8.86516
     4  H(1)              -0.00125      -5.59345      -1.99588      -1.86577
     5  H(1)              -0.00125      -5.58888      -1.99425      -1.86425
     6  H(1)              -0.00278     -12.43376      -4.43668      -4.14746
     7  H(1)              -0.00279     -12.45874      -4.44559      -4.15579
 --------------------------------------------------------
       Center         ----  Spin Dipole Couplings  ----
                      3XX-RR        3YY-RR        3ZZ-RR
 --------------------------------------------------------
     1   Atom        1.850635      1.642880     -3.493515
     2   Atom        0.188901      0.284306     -0.473207
     3   Atom        0.058209      0.209538     -0.267747
     4   Atom        0.008335     -0.013225      0.004890
     5   Atom        0.008359     -0.014793      0.006434
     6   Atom        0.009197     -0.021147      0.011950
     7   Atom        0.009121     -0.017185      0.008064
 --------------------------------------------------------
                        XY            XZ            YZ
 --------------------------------------------------------
     1   Atom        1.060075      0.049397      0.245499
     2   Atom       -0.630393     -0.030688      0.036848
     3   Atom        0.365984      0.017654      0.023049
     4   Atom       -0.004997      0.021009     -0.009087
     5   Atom       -0.002966     -0.021389      0.007192
     6   Atom        0.008299      0.034603      0.019144
     7   Atom        0.011554     -0.033649     -0.021965
 --------------------------------------------------------


 ---------------------------------------------------------------------------------
              Anisotropic Spin Dipole Couplings in Principal Axis System
 ---------------------------------------------------------------------------------

       Atom             a.u.   MegaHertz   Gauss  10(-4) cm-1        Axes

              Baa    -3.5052  -496.275  -177.083  -165.540  0.0002 -0.0477  0.9989
     1 Cu(63) Bbb     0.6869    97.248    34.701    32.438 -0.6738  0.7381  0.0354
              Bcc     2.8184   399.027   142.383   133.101  0.7389  0.6730  0.0320
 
              Baa    -0.4750    34.370    12.264    11.465  0.0007 -0.0479  0.9989
     2 O(17)  Bbb    -0.3955    28.619    10.212     9.546  0.7337  0.6787  0.0321
              Bcc     0.8705   -62.989   -22.476   -21.011 -0.6794  0.7329  0.0356
 
              Baa    -0.2689    19.454     6.942     6.489 -0.0004 -0.0478  0.9989
     3 O(17)  Bbb    -0.2398    17.354     6.192     5.789  0.7758 -0.6303 -0.0298
              Bcc     0.5087   -36.808   -13.134   -12.278  0.6310  0.7749  0.0374
 
              Baa    -0.0182    -9.723    -3.470    -3.243 -0.3244  0.7420  0.5866
     4 H(1)   Bbb    -0.0117    -6.253    -2.231    -2.086  0.6301  0.6321 -0.4511
              Bcc     0.0299    15.977     5.701     5.329  0.7055 -0.2232  0.6726
 
              Baa    -0.0182    -9.723    -3.470    -3.243 -0.3240  0.7950 -0.5129
     5 H(1)   Bbb    -0.0117    -6.253    -2.231    -2.086  0.6299  0.5857  0.5101
              Bcc     0.0299    15.977     5.701     5.329  0.7059 -0.1578 -0.6905
 
              Baa    -0.0324   -17.296    -6.172    -5.769  0.3360  0.7408 -0.5817
     6 H(1)   Bbb    -0.0182    -9.695    -3.459    -3.234  0.6824 -0.6171 -0.3917
              Bcc     0.0506    26.991     9.631     9.003  0.6492  0.2654  0.7129
 
              Baa    -0.0324   -17.296    -6.172    -5.769  0.3368  0.6815  0.6497
     7 H(1)   Bbb    -0.0182    -9.695    -3.459    -3.234  0.6828 -0.6519  0.3299
              Bcc     0.0506    26.990     9.631     9.003 -0.6484 -0.3325  0.6848
 

 ---------------------------------------------------------------------------------

 B after Tr=     0.846830   -0.760433   -0.941154
         Rot=    0.812036    0.091604    0.018073   -0.576090 Ang=  71.41 deg.
 Atom   5 needs variable   3=   0.9768750186 but is    0.9768795740
 Input z-matrix variables are not compatible with final structure.
 1\1\GINC-MILLENNIUM-FALCON\Scan\UB3LYP\6-311G(d)\Cu1H4O2(2+,2)\JAKE\17
 -Jun-2016\0\\#opt=(modredundant,maxcycles=350) B3LYP/6-311G* scf=xqc\\
 cu2(h20)2\\2,2\Cu,-0.4007293079,0.5307271281,1.0225396899\O,-0.3432204
 804,0.3306292156,2.3920070723\O,0.2221691608,0.1591388787,-0.674823649
 4\H,0.9745318194,0.5992710021,-1.1158767598\H,-0.0776816536,-0.5755045
 817,-1.244624735\H,-0.7803149306,-0.3863545295,2.9296875363\H,0.256960
 7581,0.7711433896,3.0552920393\\Version=EM64L-G09RevD.01\State=2-A\HF=
 -1792.5475554,-1792.5468329,-1792.5462186,-1792.5456435,-1792.5451905,
 -1792.5449024,-1792.5448141,-1792.5449825,-1792.5454822,-1792.5463704,
 -1792.5477346,-1792.5549386,-1792.5588095,-1792.5635568,-1792.5691975,
 -1792.5756615,-1792.5827488,-1792.5900911,-1792.597084,-1792.6028521,-
 1792.6061781,-1792.6051635,-1792.5961942,-1792.5738269,-1792.5295609,-
 1792.4501051\S2=0.761591,0.761433,0.761212,0.761012,0.760736,0.760375,
 0.759924,0.759346,0.758621,0.757753,0.756717,0.756372,0.755543,0.75469
 2,0.753852,0.75309,0.752464,0.752019,0.751739,0.75159,0.751528,0.75152
 2,0.751558,0.751614,0.751675,0.751724\S2-1=0.,0.,0.,0.,0.,0.,0.,0.,0.,
 0.,0.,0.,0.,0.,0.,0.,0.,0.,0.,0.,0.,0.,0.,0.,0.,0.\S2A=0.750018,0.7500
 18,0.750017,0.750016,0.750015,0.750014,0.750013,0.750011,0.75001,0.750
 008,0.750007,0.750007,0.750006,0.750005,0.750004,0.750003,0.750002,0.7
 50002,0.750002,0.750002,0.750002,0.750002,0.750002,0.750002,0.750002,0
 .750002\RMSD=3.809e-09,8.683e-09,9.317e-09,7.031e-09,2.827e-09,1.817e-
 09,2.079e-09,5.807e-09,2.603e-09,6.300e-09,8.674e-09,2.863e-09,4.533e-
 09,4.723e-09,5.464e-09,3.837e-09,6.315e-09,3.825e-09,3.839e-09,2.592e-
 09,3.443e-09,3.168e-09,9.856e-10,1.811e-09,8.292e-09,7.383e-09\PG=C01 
 [X(Cu1H4O2)]\\@


 THERE IS NOTHING NOBLE IN BEING SUPERIOR TO SOME OTHER MAN.
 TRUE NOBILITY IS BEING SUPERIOR TO YOUR FORMER SELF.

                                                   -- HINDU PROVERB
 Job cpu time:       0 days  0 hours 50 minutes 52.2 seconds.
 File lengths (MBytes):  RWF=     10 Int=      0 D2E=      0 Chk=      3 Scr=      1
 Normal termination of Gaussian 09 at Fri Jun 17 15:24:36 2016.
