 Entering Gaussian System, Link 0=g09
 Input=2coord_b3lyp_A_F_135.inp
 Output=2coord_b3lyp_A_F_135.log
 Initial command:
 /usr/local/g09/l1.exe "./Gau-8446.inp" -scrdir="./"
 Entering Link 1 = /usr/local/g09/l1.exe PID=      8448.
  
 Copyright (c) 1988,1990,1992,1993,1995,1998,2003,2009,2013,
            Gaussian, Inc.  All Rights Reserved.
  
 This is part of the Gaussian(R) 09 program.  It is based on
 the Gaussian(R) 03 system (copyright 2003, Gaussian, Inc.),
 the Gaussian(R) 98 system (copyright 1998, Gaussian, Inc.),
 the Gaussian(R) 94 system (copyright 1995, Gaussian, Inc.),
 the Gaussian 92(TM) system (copyright 1992, Gaussian, Inc.),
 the Gaussian 90(TM) system (copyright 1990, Gaussian, Inc.),
 the Gaussian 88(TM) system (copyright 1988, Gaussian, Inc.),
 the Gaussian 86(TM) system (copyright 1986, Carnegie Mellon
 University), and the Gaussian 82(TM) system (copyright 1983,
 Carnegie Mellon University). Gaussian is a federally registered
 trademark of Gaussian, Inc.
  
 This software contains proprietary and confidential information,
 including trade secrets, belonging to Gaussian, Inc.
  
 This software is provided under written license and may be
 used, copied, transmitted, or stored only in accord with that
 written license.
  
 The following legend is applicable only to US Government
 contracts under FAR:
  
                    RESTRICTED RIGHTS LEGEND
  
 Use, reproduction and disclosure by the US Government is
 subject to restrictions as set forth in subparagraphs (a)
 and (c) of the Commercial Computer Software - Restricted
 Rights clause in FAR 52.227-19.
  
 Gaussian, Inc.
 340 Quinnipiac St., Bldg. 40, Wallingford CT 06492
  
  
 ---------------------------------------------------------------
 Warning -- This program may not be used in any manner that
 competes with the business of Gaussian, Inc. or will provide
 assistance to any competitor of Gaussian, Inc.  The licensee
 of this program is prohibited from giving any competitor of
 Gaussian, Inc. access to this program.  By using this program,
 the user acknowledges that Gaussian, Inc. is engaged in the
 business of creating and licensing software in the field of
 computational chemistry and represents and warrants to the
 licensee that it is not a competitor of Gaussian, Inc. and that
 it will not use this program in any manner prohibited above.
 ---------------------------------------------------------------
  

 Cite this work as:
 Gaussian 09, Revision D.01,
 M. J. Frisch, G. W. Trucks, H. B. Schlegel, G. E. Scuseria, 
 M. A. Robb, J. R. Cheeseman, G. Scalmani, V. Barone, B. Mennucci, 
 G. A. Petersson, H. Nakatsuji, M. Caricato, X. Li, H. P. Hratchian, 
 A. F. Izmaylov, J. Bloino, G. Zheng, J. L. Sonnenberg, M. Hada, 
 M. Ehara, K. Toyota, R. Fukuda, J. Hasegawa, M. Ishida, T. Nakajima, 
 Y. Honda, O. Kitao, H. Nakai, T. Vreven, J. A. Montgomery, Jr., 
 J. E. Peralta, F. Ogliaro, M. Bearpark, J. J. Heyd, E. Brothers, 
 K. N. Kudin, V. N. Staroverov, T. Keith, R. Kobayashi, J. Normand, 
 K. Raghavachari, A. Rendell, J. C. Burant, S. S. Iyengar, J. Tomasi, 
 M. Cossi, N. Rega, J. M. Millam, M. Klene, J. E. Knox, J. B. Cross, 
 V. Bakken, C. Adamo, J. Jaramillo, R. Gomperts, R. E. Stratmann, 
 O. Yazyev, A. J. Austin, R. Cammi, C. Pomelli, J. W. Ochterski, 
 R. L. Martin, K. Morokuma, V. G. Zakrzewski, G. A. Voth, 
 P. Salvador, J. J. Dannenberg, S. Dapprich, A. D. Daniels, 
 O. Farkas, J. B. Foresman, J. V. Ortiz, J. Cioslowski, 
 and D. J. Fox, Gaussian, Inc., Wallingford CT, 2013.
 
 ******************************************
 Gaussian 09:  EM64L-G09RevD.01 24-Apr-2013
                17-Jun-2016 
 ******************************************
 %mem=2GB
 %nprocshared=1
 Will use up to    1 processors via shared memory.
 %chk=pescuh2o2.chk
 -------------------------------------------------------
 #opt=(modredundant,maxcycles=350) B3LYP/6-311G* scf=xqc
 -------------------------------------------------------
 1/6=350,14=-1,18=120,19=15,26=3,38=1/1,3;
 2/9=110,12=2,17=6,18=5,40=1/2;
 3/5=4,6=6,7=1,11=2,16=1,25=1,30=1,71=1,74=-5/1,2,3;
 4//1;
 5/5=2,8=3,13=1,38=5/2,8;
 6/7=2,8=2,9=2,10=2,28=1/1;
 7//1,2,3,16;
 1/6=350,14=-1,18=20,19=15,26=3/3(2);
 2/9=110/2;
 99//99;
 2/9=110/2;
 3/5=4,6=6,7=1,11=2,16=1,25=1,30=1,71=1,74=-5/1,2,3;
 4/5=5,16=3,69=1/1;
 5/5=2,8=3,13=1,38=5/2,8;
 7//1,2,3,16;
 1/6=350,14=-1,18=20,19=15,26=3/3(-5);
 2/9=110/2;
 6/7=2,8=2,9=2,10=2,19=2,28=1/1;
 99/9=1/99;
 ---------
 cu2(h20)2
 ---------
 Symbolic Z-matrix:
 Charge =  2 Multiplicity = 2
 Cu
 O                    1    A
 O                    1    B        2    H
 H                    3    C        1    D        2    E        0
 H                    3    C        1    D        2    F        0
 H                    2    C        1    D        3    G        0
 H                    2    C        1    D        6    E        0
       Variables:
  A                     3.8852                   
  B                     1.88506                  
  C                     0.95                     
  D                   109.471                    
  E                   180.                       
  F                     0.                       
  G                    90.                       
  H                   135.                       
 
     4 tetrahedral angles replaced.
 Add virtual bond connecting atoms O2         and Cu1        Dist= 7.34D+00.
 The following ModRedundant input section has been read:
 A       2       1       3 F                                                   
 B       1       2 S  25 -0.100                                                
 

 GradGradGradGradGradGradGradGradGradGradGradGradGradGradGradGradGradGrad
 Berny optimization.
 Initialization pass.
                           ----------------------------
                           !    Initial Parameters    !
                           ! (Angstroms and Degrees)  !
 --------------------------                            --------------------------
 ! Name  Definition              Value          Derivative Info.                !
 --------------------------------------------------------------------------------
 ! R1    R(1,2)                  3.8852         Scan                            !
 ! R2    R(1,3)                  1.8851         estimate D2E/DX2                !
 ! R3    R(2,6)                  0.95           estimate D2E/DX2                !
 ! R4    R(2,7)                  0.95           estimate D2E/DX2                !
 ! R5    R(3,4)                  0.95           estimate D2E/DX2                !
 ! R6    R(3,5)                  0.95           estimate D2E/DX2                !
 ! A1    A(2,1,3)              135.0            Frozen                          !
 ! A2    A(1,2,6)              109.4712         estimate D2E/DX2                !
 ! A3    A(1,2,7)              109.4712         estimate D2E/DX2                !
 ! A4    A(6,2,7)              141.0576         estimate D2E/DX2                !
 ! A5    A(1,3,4)              109.4712         estimate D2E/DX2                !
 ! A6    A(1,3,5)              109.4712         estimate D2E/DX2                !
 ! A7    A(4,3,5)              141.0576         estimate D2E/DX2                !
 ! D1    D(3,1,2,6)             90.0            estimate D2E/DX2                !
 ! D2    D(3,1,2,7)            -90.0            estimate D2E/DX2                !
 ! D3    D(2,1,3,4)            180.0            estimate D2E/DX2                !
 ! D4    D(2,1,3,5)              0.0            estimate D2E/DX2                !
 ! D5    D(1,2,6,7)            180.0            estimate D2E/DX2                !
 ! D6    D(1,3,4,5)            180.0            estimate D2E/DX2                !
 --------------------------------------------------------------------------------
 Trust Radius=3.00D-01 FncErr=1.00D-07 GrdErr=1.00D-06
 Number of optimizations in scan=  26
 Number of steps in this run=    100 maximum allowed number of steps=    100.
 GradGradGradGradGradGradGradGradGradGradGradGradGradGradGradGradGradGrad

                          Input orientation:                          
 ---------------------------------------------------------------------
 Center     Atomic      Atomic             Coordinates (Angstroms)
 Number     Number       Type             X           Y           Z
 ---------------------------------------------------------------------
      1         29           0        0.000000    0.000000    0.000000
      2          8           0        0.000000    0.000000    3.885203
      3          8           0        1.332939    0.000000   -1.332939
      4          1           0        0.923523    0.000000   -2.190190
      5          1           0        2.190190    0.000000   -0.923523
      6          1           0        0.000000    0.895669    4.201870
      7          1           0        0.000000   -0.895669    4.201870
 ---------------------------------------------------------------------
                    Distance matrix (angstroms):
                    1          2          3          4          5
     1  Cu   0.000000
     2  O    3.885203   0.000000
     3  O    1.885061   5.385698   0.000000
     4  H    2.376936   6.145185   0.950000   0.000000
     5  H    2.376936   5.284012   0.950000   1.791337   0.000000
     6  H    4.296269   0.950000   5.763077   6.520241   5.645246
     7  H    4.296269   0.950000   5.763077   6.520241   5.645246
                    6          7
     6  H    0.000000
     7  H    1.791337   0.000000
 Stoichiometry    CuH4O2(2+,2)
 Framework group  CS[SG(CuH2O2),X(H2)]
 Deg. of freedom    10
 Full point group                 CS      NOp   2
 Largest Abelian subgroup         CS      NOp   2
 Largest concise Abelian subgroup CS      NOp   2
                         Standard orientation:                         
 ---------------------------------------------------------------------
 Center     Atomic      Atomic             Coordinates (Angstroms)
 Number     Number       Type             X           Y           Z
 ---------------------------------------------------------------------
      1         29           0        0.000000    0.595247    0.000000
      2          8           0       -1.835195   -2.829203    0.000000
      3          8           0        1.804485    1.140491    0.000000
      4          1           0        1.848548    2.089468    0.000000
      5          1           0        2.366683    0.374701    0.000000
      6          1           0       -1.984774   -3.108316    0.895669
      7          1           0       -1.984774   -3.108316   -0.895669
 ---------------------------------------------------------------------
 Rotational constants (GHZ):     22.4503799      1.6936169      1.5908473
 Standard basis: 6-311G(d) (5D, 7F)
 There are    74 symmetry adapted cartesian basis functions of A'  symmetry.
 There are    28 symmetry adapted cartesian basis functions of A"  symmetry.
 There are    67 symmetry adapted basis functions of A'  symmetry.
 There are    27 symmetry adapted basis functions of A"  symmetry.
    94 basis functions,   165 primitive gaussians,   102 cartesian basis functions
    24 alpha electrons       23 beta electrons
       nuclear repulsion energy       144.7961602541 Hartrees.
 NAtoms=    7 NActive=    7 NUniq=    6 SFac= 1.36D+00 NAtFMM=   60 NAOKFM=F Big=F
 Integral buffers will be    131072 words long.
 Raffenetti 2 integral format.
 Two-electron integral symmetry is turned on.
 One-electron integrals computed using PRISM.
 NBasis=    94 RedAO= T EigKep=  1.33D-02  NBF=    67    27
 NBsUse=    94 1.00D-06 EigRej= -1.00D+00 NBFU=    67    27
 ExpMin= 4.08D-02 ExpMax= 3.37D+05 ExpMxC= 1.14D+04 IAcc=2 IRadAn=         4 AccDes= 0.00D+00
 Harris functional with IExCor=  402 and IRadAn=       4 diagonalized for initial guess.
 HarFok:  IExCor=  402 AccDes= 0.00D+00 IRadAn=         4 IDoV= 1 UseB2=F ITyADJ=14
 ICtDFT=  3500011 ScaDFX=  1.000000  1.000000  1.000000  1.000000
 FoFCou: FMM=F IPFlag=           0 FMFlag=      100000 FMFlg1=           0
         NFxFlg=           0 DoJE=T BraDBF=F KetDBF=T FulRan=T
         wScrn=  0.000000 ICntrl=     500 IOpCl=  0 I1Cent=   200000004 NGrid=           0
         NMat0=    1 NMatS0=      1 NMatT0=    0 NMatD0=    1 NMtDS0=    0 NMtDT0=    0
 Petite list used in FoFCou.
 Initial guess orbital symmetries:
 Alpha Orbitals:
       Occupied  (A') (A') (A') (A') (A") (A') (A') (A') (A') (A')
                 (A") (A') (A') (A') (A") (A') (A") (A') (A') (A')
                 (A') (A') (A") (A")
       Virtual   (A') (A') (A') (A') (A") (A') (A') (A') (A') (A")
                 (A") (A') (A') (A') (A') (A") (A') (A') (A") (A')
                 (A') (A") (A') (A") (A') (A') (A') (A') (A') (A")
                 (A") (A") (A") (A') (A') (A') (A') (A") (A') (A')
                 (A') (A') (A") (A') (A') (A") (A") (A') (A") (A')
                 (A') (A') (A") (A') (A") (A') (A") (A') (A') (A")
                 (A') (A') (A') (A") (A') (A') (A') (A') (A') (A')
 Beta  Orbitals:
       Occupied  (A') (A') (A') (A') (A") (A') (A') (A') (A') (A')
                 (A") (A') (A') (A') (A") (A') (A") (A') (A') (A')
                 (A') (A') (A")
       Virtual   (A") (A') (A') (A') (A') (A") (A') (A') (A') (A')
                 (A") (A") (A') (A') (A') (A') (A") (A') (A') (A")
                 (A') (A') (A") (A') (A") (A') (A') (A') (A') (A')
                 (A") (A") (A") (A") (A') (A') (A') (A') (A") (A')
                 (A') (A') (A') (A") (A') (A') (A") (A") (A') (A")
                 (A') (A') (A') (A") (A') (A") (A') (A") (A') (A')
                 (A") (A') (A') (A') (A") (A') (A') (A') (A') (A')
                 (A')
 The electronic state of the initial guess is 2-A".
 Initial guess <Sx>= 0.0000 <Sy>= 0.0000 <Sz>= 0.5000 <S**2>= 0.7500 S= 0.5000
 Keep R1 and R2 ints in memory in symmetry-blocked form, NReq=15545797.
 Requested convergence on RMS density matrix=1.00D-08 within  64 cycles.
 Requested convergence on MAX density matrix=1.00D-06.
 Requested convergence on             energy=1.00D-06.
 No special actions if energy rises.
 EnCoef did   100 forward-backward iterations
 EnCoef did   100 forward-backward iterations
 EnCoef did   100 forward-backward iterations
 EnCoef did   100 forward-backward iterations
 EnCoef did     8 forward-backward iterations
 EnCoef did    55 forward-backward iterations
 EnCoef did   100 forward-backward iterations
 EnCoef did   100 forward-backward iterations
 EnCoef did   100 forward-backward iterations
 EnCoef did   100 forward-backward iterations
 EnCoef did   100 forward-backward iterations
 Rare condition: small coef for last iteration:  0.635D-15
 EnCoef did   100 forward-backward iterations
 Rare condition: small coef for last iteration:  0.000D+00
 EnCoef did   100 forward-backward iterations
 EnCoef did   100 forward-backward iterations
 EnCoef did   100 forward-backward iterations
 EnCoef did   100 forward-backward iterations
 EnCoef did   100 forward-backward iterations
 Rare condition: small coef for last iteration: -0.163D-14
 EnCoef did   100 forward-backward iterations
 Rare condition: small coef for last iteration:  0.000D+00
 EnCoef did   100 forward-backward iterations
 EnCoef did   100 forward-backward iterations
 EnCoef did   100 forward-backward iterations
 EnCoef did   100 forward-backward iterations
 EnCoef did   100 forward-backward iterations
 Rare condition: small coef for last iteration:  0.000D+00
 EnCoef did   100 forward-backward iterations
 EnCoef did   100 forward-backward iterations
 EnCoef did   100 forward-backward iterations
 EnCoef did   100 forward-backward iterations
 EnCoef did   100 forward-backward iterations
 EnCoef did   100 forward-backward iterations
 EnCoef did   100 forward-backward iterations
 EnCoef did   100 forward-backward iterations
 EnCoef did   100 forward-backward iterations
 Rare condition: small coef for last iteration: -0.200D-14
 Rare condition: small coef for last iteration:  0.000D+00
 Rare condition: small coef for last iteration:  0.000D+00
 Rare condition: small coef for last iteration:  0.000D+00
 Rare condition: small coef for last iteration:  0.000D+00
 Rare condition: small coef for last iteration:  0.000D+00
 Rare condition: small coef for last iteration:  0.000D+00
 Rare condition: small coef for last iteration:  0.000D+00
 Rare condition: small coef for last iteration:  0.000D+00
 Rare condition: small coef for last iteration:  0.000D+00
 Rare condition: small coef for last iteration:  0.000D+00
 Rare condition: small coef for last iteration:  0.000D+00
 Rare condition: small coef for last iteration:  0.000D+00
 >>>>>>>>>> Convergence criterion not met.
 SCF Done:  E(UB3LYP) =  -1792.39710321     A.U. after   65 cycles
            NFock= 64  Conv=0.50D-05     -V/T= 1.9988
 <Sx>= 0.0000 <Sy>= 0.0000 <Sz>= 0.5000 <S**2>= 0.7516 S= 0.5008
 <L.S>= 0.000000000000E+00
 Annihilation of the first spin contaminant:
 S**2 before annihilation     0.7516,   after     0.7500
 Keep R1 and R2 ints in memory in symmetry-blocked form, NReq=15602405.
 Gradient too large for Newton-Raphson -- use scaled steepest descent instead.
  Beta Gap=    -0.398 HL deriv= 2.54D-17 Rot set to   7.92D-01
     Minimum is close to point  2 DX=  7.22D-03 DF= -3.19D-05 DXR=  2.35D-02 DFR=  5.52D-04 which will be used.
 Gradient too large for Newton-Raphson -- use scaled steepest descent instead.
 Gradient too large for Newton-Raphson -- use scaled steepest descent instead.
 Gradient too large for Newton-Raphson -- use scaled steepest descent instead.
 Gradient too large for Newton-Raphson -- use scaled steepest descent instead.
     Accept linear search using points  1 and  2.
 Gradient too large for Newton-Raphson -- use scaled steepest descent instead.
     Accept linear search using points  3 and  4.
 Gradient too large for Newton-Raphson -- use scaled steepest descent instead.
     Minimum is close to point  3 DX=  2.95D-02 DF= -2.60D-05 DXR=  8.96D-02 DFR=  8.10D-03 which will be used.
 Gradient too large for Newton-Raphson -- use scaled steepest descent instead.
 Gradient too large for Newton-Raphson -- use scaled steepest descent instead.
 Gradient too large for Newton-Raphson -- use scaled steepest descent instead.
 Gradient too large for Newton-Raphson -- use scaled steepest descent instead.
     Accept linear search using points  1 and  2.
 Gradient too large for Newton-Raphson -- use scaled steepest descent instead.
     Minimum is close to point  4 DX=  9.85D-02 DF= -1.34D-05 DXR=  8.22D-02 DFR=  7.51D-03 which will be used.
 Gradient too large for Newton-Raphson -- use scaled steepest descent instead.
     Accept linear search using points  1 and  2.
 LinEq1:  Iter=  0 NonCon=     1 RMS=5.34D-04 Max=2.68D-02 NDo=     1
 AX will form     1 AO Fock derivatives at one time.
 LinEq1:  Iter=  1 NonCon=     1 RMS=4.67D-03 Max=1.31D-01 NDo=     1
 LinEq1:  Iter=  2 NonCon=     1 RMS=3.45D-03 Max=1.37D-01 NDo=     1
 LinEq1:  Iter=  3 NonCon=     1 RMS=1.97D-03 Max=9.46D-02 NDo=     1
 LinEq1:  Iter=  4 NonCon=     1 RMS=4.82D-04 Max=7.84D-03 NDo=     1
 LinEq1:  Iter=  5 NonCon=     1 RMS=1.99D-04 Max=4.49D-03 NDo=     1
 LinEq1:  Iter=  6 NonCon=     1 RMS=1.27D-04 Max=4.70D-03 NDo=     1
 LinEq1:  Iter=  7 NonCon=     1 RMS=9.16D-05 Max=2.20D-03 NDo=     1
 LinEq1:  Iter=  8 NonCon=     1 RMS=5.08D-05 Max=8.66D-04 NDo=     1
 LinEq1:  Iter=  9 NonCon=     1 RMS=1.65D-05 Max=4.88D-04 NDo=     1
 LinEq1:  Iter= 10 NonCon=     1 RMS=3.77D-06 Max=7.73D-05 NDo=     1
 LinEq1:  Iter= 11 NonCon=     1 RMS=1.06D-06 Max=3.35D-05 NDo=     1
 LinEq1:  Iter= 12 NonCon=     1 RMS=3.49D-07 Max=1.25D-05 NDo=     1
 LinEq1:  Iter= 13 NonCon=     1 RMS=1.13D-07 Max=2.26D-06 NDo=     1
 LinEq1:  Iter= 14 NonCon=     1 RMS=2.71D-08 Max=5.43D-07 NDo=     1
 LinEq1:  Iter= 15 NonCon=     1 RMS=7.48D-09 Max=1.99D-07 NDo=     1
 LinEq1:  Iter= 16 NonCon=     1 RMS=2.57D-09 Max=1.09D-07 NDo=     1
 LinEq1:  Iter= 17 NonCon=     0 RMS=7.55D-10 Max=1.45D-08 NDo=     1
 Linear equations converged to 5.756D-09 5.756D-08 after    17 iterations.
     Minimum is close to point  2 DX=  9.55D-03 DF= -8.71D-09 DXR=  9.46D-03 DFR=  8.95D-05 which will be used.
 LinEq1:  Iter=  0 NonCon=     1 RMS=9.07D-05 Max=5.20D-03 NDo=     1
 LinEq1:  Iter=  1 NonCon=     1 RMS=6.00D-05 Max=1.77D-03 NDo=     1
 LinEq1:  Iter=  2 NonCon=     1 RMS=9.79D-05 Max=4.49D-03 NDo=     1
 LinEq1:  Iter=  3 NonCon=     1 RMS=5.63D-05 Max=2.26D-03 NDo=     1
 LinEq1:  Iter=  4 NonCon=     1 RMS=2.36D-05 Max=6.28D-04 NDo=     1
 LinEq1:  Iter=  5 NonCon=     1 RMS=1.47D-05 Max=2.81D-04 NDo=     1
 LinEq1:  Iter=  6 NonCon=     1 RMS=5.60D-06 Max=1.98D-04 NDo=     1
 LinEq1:  Iter=  7 NonCon=     1 RMS=2.90D-06 Max=9.64D-05 NDo=     1
 LinEq1:  Iter=  8 NonCon=     1 RMS=8.67D-07 Max=1.58D-05 NDo=     1
 LinEq1:  Iter=  9 NonCon=     1 RMS=2.85D-07 Max=4.99D-06 NDo=     1
 LinEq1:  Iter= 10 NonCon=     1 RMS=8.93D-08 Max=2.68D-06 NDo=     1
 LinEq1:  Iter= 11 NonCon=     1 RMS=2.70D-08 Max=9.96D-07 NDo=     1
 LinEq1:  Iter= 12 NonCon=     1 RMS=7.46D-09 Max=1.74D-07 NDo=     1
 LinEq1:  Iter= 13 NonCon=     1 RMS=2.35D-09 Max=4.63D-08 NDo=     1
 LinEq1:  Iter= 14 NonCon=     0 RMS=6.75D-10 Max=2.46D-08 NDo=     1
 Linear equations converged to 3.351D-09 3.351D-08 after    14 iterations.
     Minimum is close to point  2 DX=  3.24D-03 DF= -2.27D-13 DXR=  3.23D-03 DFR=  4.81D-06 which will be used.
 Density matrix breaks symmetry, PCut= 1.00D-04
 Density matrix has no symmetry -- integrals replicated.
 Density matrix is not symmetric, so final MOs not symmetrized.
 SCF Done:  E(UB3LYP) =  -1792.49445967     a.u. after   16 cycles
            Convg  =    0.5258D-06                    79 Fock formations.
              S**2 =  0.7524                  -V/T =  2.0006
 <Sx>= 0.0000 <Sy>= 0.0000 <Sz>= 0.5000 <S**2>= 0.7524 S= 0.5012
 <L.S>= 0.000000000000E+00
 Annihilation of the first spin contaminant:
 S**2 before annihilation     0.7524,   after     0.7500

 **********************************************************************

            Population analysis using the SCF density.

 **********************************************************************

 Orbital symmetries:
 Alpha Orbitals:
       Occupied  (A') (A') (?A) (?A) (A') (A') (A') (A') (?A) (?A)
                 (A') (A') (A') (A') (A") (A') (A") (A') (A') (?A)
                 (?A) (?A) (?A) (A')
       Virtual   (A') (A') (A') (A') (A") (A') (A') (A') (A') (A")
                 (A') (A") (A') (A') (A') (A") (A') (A') (A") (A')
                 (?A) (?A) (?A) (?A) (A') (A') (A') (A') (A') (A")
                 (A") (A") (A') (A') (A") (A') (A') (A") (A') (A')
                 (A') (A") (A") (?A) (?A) (A") (A') (A') (A') (A")
                 (A') (A') (A") (A') (A") (?A) (?A) (A') (A') (A")
                 (A') (A') (A') (A") (A') (A') (A') (A') (A') (A')
 Beta  Orbitals:
       Occupied  (A') (A') (?A) (?A) (A') (A') (A') (A') (?A) (?A)
                 (A') (A') (A') (A') (A") (A') (A") (A') (A") (?A)
                 (?A) (A") (A")
       Virtual   (A") (A') (A') (A') (A') (A") (A') (A') (A') (A')
                 (A") (A') (A") (A') (A') (A') (A") (A') (A') (A")
                 (A') (A') (A") (A') (A") (A') (A') (A') (A') (A')
                 (A") (A") (A") (A") (A') (A') (A') (A') (A") (A')
                 (A') (A') (?A) (?A) (?A) (?A) (?A) (?A) (A') (A")
                 (A') (A') (A') (A") (A') (A") (A') (A") (A') (A')
                 (A") (A') (A') (A') (A") (A') (A') (A') (A') (A')
                 (A')
 Unable to determine electronic state:  an orbital has unidentified symmetry.
 Alpha  occ. eigenvalues -- -323.44211 -39.23639 -34.46321 -34.46215 -34.44701
 Alpha  occ. eigenvalues --  -19.57009 -19.56543  -4.77216  -3.28071  -3.27856
 Alpha  occ. eigenvalues --   -3.24769  -1.45474  -1.44732  -1.03262  -1.01481
 Alpha  occ. eigenvalues --   -0.86134  -0.80066  -0.77941  -0.76696  -0.74962
 Alpha  occ. eigenvalues --   -0.74909  -0.74827  -0.74046  -0.72455
 Alpha virt. eigenvalues --   -0.49867  -0.31787  -0.30735  -0.23637  -0.21008
 Alpha virt. eigenvalues --   -0.18565  -0.04307  -0.02452   0.04833   0.11944
 Alpha virt. eigenvalues --    0.28785   0.30874   0.33882   0.37038   0.43751
 Alpha virt. eigenvalues --    0.52581   0.68733   0.74223   0.83095   0.86845
 Alpha virt. eigenvalues --    0.99401   0.99406   1.01310   1.01953   1.22008
 Alpha virt. eigenvalues --    1.28293   1.54198   1.56191   1.72718   1.73348
 Alpha virt. eigenvalues --    2.27302   2.28451   2.35241   2.35396   2.37488
 Alpha virt. eigenvalues --    2.53447   2.69832   2.72905   2.73011   3.03218
 Alpha virt. eigenvalues --    3.04268   3.48549   3.48653   3.48861   3.50183
 Alpha virt. eigenvalues --    3.50239   3.51354   3.51782   4.26508   4.29634
 Alpha virt. eigenvalues --    4.34896   4.44464   4.64347   4.67282   6.71092
 Alpha virt. eigenvalues --    6.71158   6.71473   6.78241   6.83801   8.79430
 Alpha virt. eigenvalues --    8.87430   9.10570  31.49693  42.25705  42.31512
 Alpha virt. eigenvalues --   42.46835  49.26170  49.29563 183.56406 978.81960
  Beta  occ. eigenvalues -- -323.44211 -39.22547 -34.45139 -34.45016 -34.44426
  Beta  occ. eigenvalues --  -19.56364 -19.55568  -4.74970  -3.24848  -3.24654
  Beta  occ. eigenvalues --   -3.24033  -1.45067  -1.41058  -1.03144  -1.00478
  Beta  occ. eigenvalues --   -0.85844  -0.76198  -0.75150  -0.73989  -0.73781
  Beta  occ. eigenvalues --   -0.73686  -0.71496  -0.65774
  Beta virt. eigenvalues --   -0.63171  -0.49600  -0.31680  -0.30239  -0.23601
  Beta virt. eigenvalues --   -0.20742  -0.18442  -0.04228  -0.02127   0.04859
  Beta virt. eigenvalues --    0.12093   0.29088   0.31515   0.37813   0.38368
  Beta virt. eigenvalues --    0.43860   0.53291   0.69030   0.76141   0.84365
  Beta virt. eigenvalues --    0.87114   0.99773   0.99861   1.01864   1.04701
  Beta virt. eigenvalues --    1.22358   1.29037   1.54510   1.56304   1.72705
  Beta virt. eigenvalues --    1.73229   2.28991   2.32055   2.38060   2.39668
  Beta virt. eigenvalues --    2.39931   2.54051   2.69924   2.73671   2.74150
  Beta virt. eigenvalues --    3.04285   3.05548   3.50396   3.50545   3.50741
  Beta virt. eigenvalues --    3.50797   3.51363   3.51917   3.52271   4.30370
  Beta virt. eigenvalues --    4.32892   4.36148   4.44650   4.65631   4.67433
  Beta virt. eigenvalues --    6.72012   6.72057   6.75867   6.79154   6.84582
  Beta virt. eigenvalues --    8.81386   8.87937   9.12512  31.51148  42.27239
  Beta virt. eigenvalues --   42.31938  42.48378  49.27624  49.29741 183.56953
  Beta virt. eigenvalues --  978.82068
          Condensed to atoms (all electrons):
               1          2          3          4          5          6
     1  Cu  27.658645   0.005114   0.113172  -0.005582  -0.005440  -0.000307
     2  O    0.005114   8.050051   0.000000  -0.000002  -0.000015   0.249581
     3  O    0.113172   0.000000   8.325674   0.243617   0.244528   0.000001
     4  H   -0.005582  -0.000002   0.243617   0.194415  -0.008863   0.000000
     5  H   -0.005440  -0.000015   0.244528  -0.008863   0.200010   0.000000
     6  H   -0.000307   0.249581   0.000001   0.000000   0.000000   0.211554
     7  H   -0.000307   0.249582   0.000001   0.000000   0.000000  -0.011031
               7
     1  Cu  -0.000307
     2  O    0.249582
     3  O    0.000001
     4  H    0.000000
     5  H    0.000000
     6  H   -0.011031
     7  H    0.211554
          Atomic-Atomic Spin Densities.
               1          2          3          4          5          6
     1  Cu   0.412153  -0.000331  -0.007371   0.000058   0.000036   0.000022
     2  O   -0.000331   0.585826   0.000000   0.000000   0.000001  -0.006665
     3  O   -0.007371   0.000000   0.067517  -0.000488  -0.000474   0.000000
     4  H    0.000058   0.000000  -0.000488  -0.001541   0.000017   0.000000
     5  H    0.000036   0.000001  -0.000474   0.000017  -0.001565   0.000000
     6  H    0.000022  -0.006665   0.000000   0.000000   0.000000  -0.009962
     7  H    0.000021  -0.006665   0.000000   0.000000   0.000000   0.000606
               7
     1  Cu   0.000021
     2  O   -0.006665
     3  O    0.000000
     4  H    0.000000
     5  H    0.000000
     6  H    0.000606
     7  H   -0.009961
 Mulliken charges and spin densities:
               1          2
     1  Cu   1.234706   0.404588
     2  O   -0.554311   0.572166
     3  O   -0.926992   0.059184
     4  H    0.576414  -0.001956
     5  H    0.569779  -0.001985
     6  H    0.550202  -0.015999
     7  H    0.550202  -0.015998
 Sum of Mulliken charges =   2.00000   1.00000
 Mulliken charges and spin densities with hydrogens summed into heavy atoms:
               1          2
     1  Cu   1.234706   0.404588
     2  O    0.546093   0.540169
     3  O    0.219201   0.055243
 Electronic spatial extent (au):  <R**2>=            638.9243
 Charge=              2.0000 electrons
 Dipole moment (field-independent basis, Debye):
    X=             -2.0339    Y=             -3.7149    Z=             -0.0001  Tot=              4.2352
 Quadrupole moment (field-independent basis, Debye-Ang):
   XX=              3.3424   YY=             18.6201   ZZ=            -16.5689
   XY=             23.5885   XZ=             -0.0010   YZ=              0.0007
 Traceless Quadrupole moment (field-independent basis, Debye-Ang):
   XX=              1.5445   YY=             16.8222   ZZ=            -18.3667
   XY=             23.5885   XZ=             -0.0010   YZ=              0.0007
 Octapole moment (field-independent basis, Debye-Ang**2):
  XXX=              2.4343  YYY=            -64.7697  ZZZ=             -0.0006  XYY=            -49.7513
  XXY=            -24.7329  XXZ=              0.0035  XZZ=            -10.6127  YZZ=             -9.9154
  YYZ=             -0.0029  XYZ=              0.0020
 Hexadecapole moment (field-independent basis, Debye-Ang**3):
 XXXX=           -132.2425 YYYY=             -3.1171 ZZZZ=            -11.2220 XXXY=            -28.7217
 XXXZ=             -0.0120 YYYX=            106.7013 YYYZ=              0.0139 ZZZX=             -0.0021
 ZZZY=              0.0006 XXYY=             50.2928 XXZZ=            -29.6662 YYZZ=            -21.6860
 XXYZ=             -0.0076 YYXZ=             -0.0027 ZZXY=            -17.6987
 N-N= 1.447961602541D+02 E-N=-4.555301393416D+03  KE= 1.791500338242D+03
 Symmetry A'   KE= 1.565845087087D+03
 Symmetry A"   KE= 2.256552511548D+02
                          Isotropic Fermi Contact Couplings
        Atom                 a.u.       MegaHertz       Gauss      10(-4) cm-1
     1  Cu(63)            -0.13600    -161.30950     -57.55924     -53.80706
     2  O(17)              0.06313     -38.26680     -13.65454     -12.76443
     3  O(17)              0.01101      -6.67709      -2.38255      -2.22724
     4  H(1)              -0.00108      -4.83813      -1.72637      -1.61383
     5  H(1)              -0.00108      -4.84570      -1.72907      -1.61635
     6  H(1)              -0.00864     -38.63135     -13.78463     -12.88603
     7  H(1)              -0.00864     -38.63153     -13.78469     -12.88609
 --------------------------------------------------------
       Center         ----  Spin Dipole Couplings  ----
                      3XX-RR        3YY-RR        3ZZ-RR
 --------------------------------------------------------
     1   Atom        0.730570     -1.656915      0.926345
     2   Atom        1.488544     -0.370118     -1.118426
     3   Atom       -0.122641     -0.147101      0.269742
     4   Atom       -0.005248      0.013718     -0.008470
     5   Atom        0.007442      0.001234     -0.008676
     6   Atom       -0.034088     -0.047606      0.081694
     7   Atom       -0.034125     -0.047570      0.081694
 --------------------------------------------------------
                        XY            XZ            YZ
 --------------------------------------------------------
     1   Atom        0.782845      0.002862      0.002759
     2   Atom       -1.401755      0.002069     -0.001111
     3   Atom        0.008932      0.003211      0.000770
     4   Atom        0.007553      0.000038     -0.000009
     5   Atom       -0.010571      0.000019      0.000039
     6   Atom       -0.010194     -0.025055     -0.046614
     7   Atom       -0.010219      0.024900      0.046698
 --------------------------------------------------------


 ---------------------------------------------------------------------------------
              Anisotropic Spin Dipole Couplings in Principal Axis System
 ---------------------------------------------------------------------------------

       Atom             a.u.   MegaHertz   Gauss  10(-4) cm-1        Axes

              Baa    -1.8907  -267.690   -95.519   -89.292 -0.2862  0.9582 -0.0006
     1 Cu(63) Bbb     0.9260   131.108    46.782    43.733 -0.0881 -0.0256  0.9958
              Bcc     0.9647   136.583    48.736    45.559  0.9541  0.2850  0.0917
 
              Baa    -1.1226    81.232    28.986    27.096  0.4730  0.8811  0.0000
     2 O(17)  Bbb    -1.1184    80.929    28.877    26.995 -0.0006  0.0003  1.0000
              Bcc     2.2411  -162.161   -57.863   -54.091  0.8811 -0.4730  0.0007
 
              Baa    -0.1500    10.855     3.873     3.621 -0.3102  0.9507  0.0006
     3 O(17)  Bbb    -0.1198     8.665     3.092     2.890  0.9506  0.3102 -0.0085
              Bcc     0.2698   -19.520    -6.965    -6.511  0.0082  0.0020  1.0000
 
              Baa    -0.0085    -4.521    -1.613    -1.508 -0.0619  0.0215  0.9979
     4 H(1)   Bbb    -0.0079    -4.207    -1.501    -1.403  0.9419 -0.3293  0.0655
              Bcc     0.0164     8.728     3.114     2.911  0.3300  0.9440  0.0002
 
              Baa    -0.0087    -4.630    -1.652    -1.544 -0.0125 -0.0172  0.9998
     5 H(1)   Bbb    -0.0067    -3.563    -1.271    -1.189  0.5992  0.8003  0.0213
              Bcc     0.0154     8.193     2.923     2.733  0.8005 -0.5993 -0.0003
 
              Baa    -0.0714   -38.082   -13.589   -12.703  0.4472  0.8326  0.3268
     6 H(1)   Bbb    -0.0286   -15.268    -5.448    -5.093  0.8809 -0.4732  0.0001
              Bcc     0.1000    53.350    19.037    17.796 -0.1547 -0.2878  0.9451
 
              Baa    -0.0714   -38.082   -13.589   -12.703  0.4469  0.8328 -0.3268
     7 H(1)   Bbb    -0.0286   -15.268    -5.448    -5.093  0.8813 -0.4725  0.0011
              Bcc     0.1000    53.350    19.037    17.796  0.1535  0.2885  0.9451
 

 ---------------------------------------------------------------------------------

 Density matrix is not symmetric, so symmetry will not be used here.
 Density matrix is not symmetric, so symmetry will not be used here.
 Calling FoFJK, ICntrl=      2127 FMM=F ISym2X=0 I1Cent= 0 IOpClX= 1 NMat=1 NMatS=1 NMatT=0.
 ***** Axes restored to original set *****
 -------------------------------------------------------------------
 Center     Atomic                   Forces (Hartrees/Bohr)
 Number     Number              X              Y              Z
 -------------------------------------------------------------------
      1       29          -0.006906857    0.000035235    0.001931637
      2        8           0.000151288   -0.000010438   -0.073011364
      3        8          -0.056758524    0.000003536    0.059465143
      4        1           0.032393033   -0.000013859   -0.032527928
      5        1           0.031522625   -0.000014564   -0.034075468
      6        1          -0.000223595    0.007969649    0.039108723
      7        1          -0.000177971   -0.007969557    0.039109256
 -------------------------------------------------------------------
 Cartesian Forces:  Max     0.073011364 RMS     0.030541212

 GradGradGradGradGradGradGradGradGradGradGradGradGradGradGradGradGradGrad
 Berny optimization.
 FormGI is forming the generalized inverse of G from B-inverse, IUseBI=4.
 Internal  Forces:  Max     0.052408147 RMS     0.020572477
 Search for a local minimum.
 Step number   1 out of a maximum of  100 on scan point     1 out of    26
 All quantities printed in internal units (Hartrees-Bohrs-Radians)
 Mixed Optimization -- RFO/linear search
 Second derivative matrix not updated -- first step.
 The second derivative matrix:
                          R1        R2        R3        R4        R5
           R1           0.00858
           R2           0.00000   0.19001
           R3           0.00000   0.00000   0.57681
           R4           0.00000   0.00000   0.00000   0.57681
           R5           0.00000   0.00000   0.00000   0.00000   0.57681
           R6           0.00000   0.00000   0.00000   0.00000   0.00000
           A1           0.00000   0.00000   0.00000   0.00000   0.00000
           A2           0.00000   0.00000   0.00000   0.00000   0.00000
           A3           0.00000   0.00000   0.00000   0.00000   0.00000
           A4           0.00000   0.00000   0.00000   0.00000   0.00000
           A5           0.00000   0.00000   0.00000   0.00000   0.00000
           A6           0.00000   0.00000   0.00000   0.00000   0.00000
           A7           0.00000   0.00000   0.00000   0.00000   0.00000
           D1           0.00000   0.00000   0.00000   0.00000   0.00000
           D2           0.00000   0.00000   0.00000   0.00000   0.00000
           D3           0.00000   0.00000   0.00000   0.00000   0.00000
           D4           0.00000   0.00000   0.00000   0.00000   0.00000
           D5           0.00000   0.00000   0.00000   0.00000   0.00000
           D6           0.00000   0.00000   0.00000   0.00000   0.00000
                          R6        A1        A2        A3        A4
           R6           0.57681
           A1           0.00000   0.25000
           A2           0.00000   0.00000   0.16000
           A3           0.00000   0.00000   0.00000   0.16000
           A4           0.00000   0.00000   0.00000   0.00000   0.16000
           A5           0.00000   0.00000   0.00000   0.00000   0.00000
           A6           0.00000   0.00000   0.00000   0.00000   0.00000
           A7           0.00000   0.00000   0.00000   0.00000   0.00000
           D1           0.00000   0.00000   0.00000   0.00000   0.00000
           D2           0.00000   0.00000   0.00000   0.00000   0.00000
           D3           0.00000   0.00000   0.00000   0.00000   0.00000
           D4           0.00000   0.00000   0.00000   0.00000   0.00000
           D5           0.00000   0.00000   0.00000   0.00000   0.00000
           D6           0.00000   0.00000   0.00000   0.00000   0.00000
                          A5        A6        A7        D1        D2
           A5           0.16000
           A6           0.00000   0.16000
           A7           0.00000   0.00000   0.16000
           D1           0.00000   0.00000   0.00000   0.00230
           D2           0.00000   0.00000   0.00000   0.00000   0.00230
           D3           0.00000   0.00000   0.00000   0.00000   0.00000
           D4           0.00000   0.00000   0.00000   0.00000   0.00000
           D5           0.00000   0.00000   0.00000   0.00000   0.00000
           D6           0.00000   0.00000   0.00000   0.00000   0.00000
                          D3        D4        D5        D6
           D3           0.03612
           D4           0.00000   0.03612
           D5           0.00000   0.00000   0.01690
           D6           0.00000   0.00000   0.00000   0.01690
 ITU=  0
     Eigenvalues ---    0.00230   0.01424   0.02039   0.03612   0.16000
     Eigenvalues ---    0.16000   0.16000   0.16000   0.19001   0.57681
     Eigenvalues ---    0.57681   0.57681   0.576811000.000001000.00000
     Eigenvalues --- 1000.000001000.000001000.000001000.00000
 RFO step:  Lambda=-3.63314891D-02 EMin= 2.30000000D-03
 Linear search not attempted -- first point.
 Maximum step size (   0.300) exceeded in Quadratic search.
    -- Step size scaled by   0.712
 Iteration  1 RMS(Cart)=  0.07426286 RMS(Int)=  0.00321015
 Iteration  2 RMS(Cart)=  0.00319585 RMS(Int)=  0.00004970
 Iteration  3 RMS(Cart)=  0.00000333 RMS(Int)=  0.00004959
 Iteration  4 RMS(Cart)=  0.00000000 RMS(Int)=  0.00004959
 Iteration  1 RMS(Cart)=  0.00000000 RMS(Int)=  0.00000000
 Variable       Old X    -DE/DX   Delta X   Delta X   Delta X     New X
                                 (Linear)    (Quad)   (Total)
    R1        7.34197   0.00521   0.00000   0.00000   0.00000   7.34197
    R2        3.56225   0.01010   0.00000   0.03177   0.03177   3.59402
    R3        1.79524   0.02055   0.00000   0.02386   0.02386   1.81910
    R4        1.79524   0.02055   0.00000   0.02386   0.02386   1.81910
    R5        1.79524   0.01539   0.00000   0.01788   0.01788   1.81312
    R6        1.79524   0.01376   0.00000   0.01597   0.01597   1.81121
    A1        2.35619   0.00196   0.00000   0.00000   0.00000   2.35619
    A2        1.91063   0.02048   0.00000   0.07425   0.07425   1.98488
    A3        1.91063   0.02048   0.00000   0.07425   0.07425   1.98488
    A4        2.46192  -0.04095   0.00000  -0.14850  -0.14850   2.31342
    A5        1.91063   0.02522   0.00000   0.09147   0.09147   2.00210
    A6        1.91063   0.02718   0.00000   0.09857   0.09857   2.00920
    A7        2.46192  -0.05241   0.00000  -0.19004  -0.19004   2.27188
    D1        1.57080   0.00010   0.00000   0.00155   0.00168   1.57248
    D2       -1.57080  -0.00002   0.00000  -0.00014  -0.00027  -1.57107
    D3        3.14159   0.00000   0.00000  -0.00005  -0.00006   3.14153
    D4        0.00000   0.00001   0.00000   0.00006   0.00007   0.00007
    D5        3.14159  -0.00018   0.00000  -0.00254  -0.00243   3.13916
    D6        3.14159   0.00001   0.00000   0.00017   0.00016  -3.14144
         Item               Value     Threshold  Converged?
 Maximum Force            0.052408     0.000450     NO 
 RMS     Force            0.021707     0.000300     NO 
 Maximum Displacement     0.184552     0.001800     NO 
 RMS     Displacement     0.074671     0.001200     NO 
 Predicted change in Energy=-1.829340D-02
 GradGradGradGradGradGradGradGradGradGradGradGradGradGradGradGradGradGrad

                          Input orientation:                          
 ---------------------------------------------------------------------
 Center     Atomic      Atomic             Coordinates (Angstroms)
 Number     Number       Type             X           Y           Z
 ---------------------------------------------------------------------
      1         29           0       -0.025789    0.000270    0.005107
      2          8           0       -0.012978    0.000015    3.890289
      3          8           0        1.314598   -0.000010   -1.344149
      4          1           0        0.978952    0.000089   -2.242984
      5          1           0        2.216997   -0.000343   -1.021184
      6          1           0       -0.012945    0.881260    4.277663
      7          1           0       -0.012183   -0.881280    4.277548
 ---------------------------------------------------------------------
                    Distance matrix (angstroms):
                    1          2          3          4          5
     1  Cu   0.000000
     2  O    3.885203   0.000000
     3  O    1.901876   5.400167   0.000000
     4  H    2.462401   6.212967   0.959459   0.000000
     5  H    2.466447   5.394011   0.958452   1.739411   0.000000
     6  H    4.362458   0.962627   5.843268   6.654258   5.816153
     7  H    4.362461   0.962627   5.842984   6.654058   5.815655
                    6          7
     6  H    0.000000
     7  H    1.762540   0.000000
 Stoichiometry    CuH4O2(2+,2)
 Framework group  C1[X(CuH4O2)]
 Deg. of freedom    15
 Full point group                 C1      NOp   1
 Omega: Change in point group or standard orientation.

 Old FWG=CS   [SG(Cu1H2O2),X(H2)]
 New FWG=C01  [X(Cu1H4O2)]
 Largest Abelian subgroup         C1      NOp   1
 Largest concise Abelian subgroup C1      NOp   1
                         Standard orientation:                         
 ---------------------------------------------------------------------
 Center     Atomic      Atomic             Coordinates (Angstroms)
 Number     Number       Type             X           Y           Z
 ---------------------------------------------------------------------
      1         29           0        0.466169    0.370867   -0.000039
      2          8           0       -3.362234   -0.291048    0.000027
      3          8           0        2.020454   -0.725185    0.000091
      4          1           0        2.850555   -0.244047   -0.000012
      5          1           0        1.852838   -1.668866    0.000135
      6          1           0       -3.744141   -0.355469    0.881303
      7          1           0       -3.743927   -0.356900   -0.881236
 ---------------------------------------------------------------------
 Rotational constants (GHZ):     22.0687911      1.6789572      1.5754840
 Standard basis: 6-311G(d) (5D, 7F)
 There are   102 symmetry adapted cartesian basis functions of A   symmetry.
 There are    94 symmetry adapted basis functions of A   symmetry.
    94 basis functions,   165 primitive gaussians,   102 cartesian basis functions
    24 alpha electrons       23 beta electrons
       nuclear repulsion energy       143.3974936796 Hartrees.
 NAtoms=    7 NActive=    7 NUniq=    7 SFac= 1.00D+00 NAtFMM=   60 NAOKFM=F Big=F
 Integral buffers will be    131072 words long.
 Raffenetti 2 integral format.
 Two-electron integral symmetry is turned on.
 One-electron integrals computed using PRISM.
 NBasis=    94 RedAO= T EigKep=  9.37D-03  NBF=    94
 NBsUse=    94 1.00D-06 EigRej= -1.00D+00 NBFU=    94
 Initial guess from the checkpoint file:  "pescuh2o2.chk"
 B after Tr=     0.000000    0.000000    0.000000
         Rot=    0.898600    0.000084    0.000042    0.438768 Ang=  52.05 deg.
 Initial guess <Sx>= 0.0000 <Sy>= 0.0000 <Sz>= 0.5000 <S**2>= 0.7524 S= 0.5012
 ExpMin= 4.08D-02 ExpMax= 3.37D+05 ExpMxC= 1.14D+04 IAcc=2 IRadAn=         4 AccDes= 0.00D+00
 Harris functional with IExCor=  402 and IRadAn=       4 diagonalized for initial guess.
 HarFok:  IExCor=  402 AccDes= 0.00D+00 IRadAn=         4 IDoV= 1 UseB2=F ITyADJ=14
 ICtDFT=  3500011 ScaDFX=  1.000000  1.000000  1.000000  1.000000
 FoFCou: FMM=F IPFlag=           0 FMFlag=      100000 FMFlg1=           0
         NFxFlg=           0 DoJE=T BraDBF=F KetDBF=T FulRan=T
         wScrn=  0.000000 ICntrl=     500 IOpCl=  0 I1Cent=   200000004 NGrid=           0
         NMat0=    1 NMatS0=      1 NMatT0=    0 NMatD0=    1 NMtDS0=    0 NMtDT0=    0
 Petite list used in FoFCou.
 Keep R1 and R2 ints in memory in canonical form, NReq=21960985.
 Requested convergence on RMS density matrix=1.00D-08 within  64 cycles.
 Requested convergence on MAX density matrix=1.00D-06.
 Requested convergence on             energy=1.00D-06.
 No special actions if energy rises.
 EnCoef did     8 forward-backward iterations
 EnCoef did    16 forward-backward iterations
 SCF Done:  E(UB3LYP) =  -1792.51757539     A.U. after   21 cycles
            NFock= 21  Conv=0.17D-08     -V/T= 2.0006
 <Sx>= 0.0000 <Sy>= 0.0000 <Sz>= 0.5000 <S**2>= 0.7523 S= 0.5012
 <L.S>= 0.000000000000E+00
 Annihilation of the first spin contaminant:
 S**2 before annihilation     0.7523,   after     0.7500
 QCSCF skips out because SCF is already converged.
 Calling FoFJK, ICntrl=      2127 FMM=F ISym2X=0 I1Cent= 0 IOpClX= 1 NMat=1 NMatS=1 NMatT=0.
 ***** Axes restored to original set *****
 -------------------------------------------------------------------
 Center     Atomic                   Forces (Hartrees/Bohr)
 Number     Number              X              Y              Z
 -------------------------------------------------------------------
      1       29          -0.001483408    0.000033849   -0.002782471
      2        8           0.000015399   -0.000006778   -0.057796379
      3        8          -0.042840828    0.000026822    0.043888406
      4        1           0.027494372   -0.000026847   -0.017377437
      5        1           0.017050283   -0.000023035   -0.028506570
      6        1          -0.000139458   -0.003549719    0.031286857
      7        1          -0.000096360    0.003545708    0.031287594
 -------------------------------------------------------------------
 Cartesian Forces:  Max     0.057796379 RMS     0.023151808

 GradGradGradGradGradGradGradGradGradGradGradGradGradGradGradGradGradGrad
 Berny optimization.
 Using GEDIIS/GDIIS optimizer.
 FormGI is forming the generalized inverse of G from B-inverse, IUseBI=4.
 Internal  Forces:  Max     0.038914217 RMS     0.015493886
 Search for a local minimum.
 Step number   2 out of a maximum of  100 on scan point     1 out of    26
 All quantities printed in internal units (Hartrees-Bohrs-Radians)
 Mixed Optimization -- RFO/linear search
 Update second derivatives using D2CorX and points    1    2
 DE= -2.31D-02 DEPred=-1.83D-02 R= 1.26D+00
 TightC=F SS=  1.41D+00  RLast= 3.00D-01 DXNew= 5.0454D-01 9.0004D-01
 Trust test= 1.26D+00 RLast= 3.00D-01 DXMaxT set to 5.05D-01
 The second derivative matrix:
                          R1        R2        R3        R4        R5
           R1           0.00861
           R2           0.00055   0.19710
           R3           0.00082   0.00875   0.58562
           R4           0.00082   0.00875   0.00881   0.58562
           R5           0.00064   0.00698   0.00724   0.00724   0.58274
           R6           0.00054   0.00561   0.00553   0.00553   0.00456
           A1           0.00000  -0.00004  -0.00006  -0.00006  -0.00005
           A2           0.00016  -0.00189  -0.00653  -0.00653  -0.00476
           A3           0.00016  -0.00189  -0.00653  -0.00653  -0.00476
           A4          -0.00033   0.00378   0.01306   0.01306   0.00953
           A5           0.00047   0.00231  -0.00110  -0.00110  -0.00046
           A6           0.00052   0.00270  -0.00087  -0.00087  -0.00024
           A7          -0.00099  -0.00501   0.00197   0.00197   0.00070
           D1           0.00000  -0.00006  -0.00008  -0.00008  -0.00007
           D2           0.00000   0.00005   0.00008   0.00008   0.00006
           D3           0.00000   0.00001   0.00001   0.00001   0.00001
           D4           0.00000  -0.00001  -0.00001  -0.00001  -0.00001
           D5           0.00000  -0.00002  -0.00001  -0.00001  -0.00001
           D6           0.00000   0.00000  -0.00001  -0.00001  -0.00001
                          R6        A1        A2        A3        A4
           R6           0.58027
           A1          -0.00004   0.25000
           A2          -0.00445  -0.00001   0.15153
           A3          -0.00445  -0.00001  -0.00847   0.15153
           A4           0.00889   0.00003   0.01693   0.01693   0.12614
           A5          -0.00095  -0.00004  -0.00904  -0.00904   0.01808
           A6          -0.00082  -0.00004  -0.00968  -0.00968   0.01936
           A7           0.00177   0.00008   0.01872   0.01872  -0.03744
           D1          -0.00006   0.00000  -0.00002  -0.00002   0.00004
           D2           0.00005   0.00000   0.00002   0.00002  -0.00003
           D3           0.00001   0.00000   0.00000   0.00000  -0.00001
           D4          -0.00001   0.00000   0.00000   0.00000   0.00001
           D5          -0.00001   0.00000   0.00002   0.00002  -0.00005
           D6          -0.00001   0.00000   0.00000   0.00000   0.00001
                          A5        A6        A7        D1        D2
           A5           0.15284
           A6          -0.00754   0.15208
           A7           0.01470   0.01545   0.12985
           D1          -0.00005  -0.00006   0.00011   0.00230
           D2           0.00005   0.00005  -0.00010   0.00000   0.00230
           D3           0.00001   0.00001  -0.00002   0.00000   0.00000
           D4          -0.00001  -0.00001   0.00002   0.00000   0.00000
           D5           0.00001   0.00001  -0.00002   0.00000   0.00000
           D6          -0.00001  -0.00001   0.00001   0.00000   0.00000
                          D3        D4        D5        D6
           D3           0.03612
           D4           0.00000   0.03612
           D5           0.00000   0.00000   0.01690
           D6           0.00000   0.00000   0.00000   0.01690
 ITU=  1  0
 Use linear search instead of GDIIS.
 Linear search step of   0.598 exceeds DXMaxT=   0.505 but not scaled.
 Quartic linear search produced a step of  1.99332.
 Iteration  1 RMS(Cart)=  0.11344103 RMS(Int)=  0.04094180
 Iteration  2 RMS(Cart)=  0.04226490 RMS(Int)=  0.00129975
 Iteration  3 RMS(Cart)=  0.00122189 RMS(Int)=  0.00024717
 Iteration  4 RMS(Cart)=  0.00000034 RMS(Int)=  0.00024717
 Iteration  1 RMS(Cart)=  0.00000000 RMS(Int)=  0.00000000
 Variable       Old X    -DE/DX   Delta X   Delta X   Delta X     New X
                                 (Linear)    (Quad)   (Total)
    R1        7.34197   0.00478   0.00000   0.00000   0.00000   7.34197
    R2        3.59402   0.00262   0.06334   0.00000   0.06334   3.65736
    R3        1.81910   0.00934   0.04756   0.00000   0.04756   1.86667
    R4        1.81910   0.00934   0.04756   0.00000   0.04756   1.86667
    R5        1.81312   0.00666   0.03563   0.00000   0.03563   1.84875
    R6        1.81121   0.00645   0.03184   0.00000   0.03184   1.84305
    A1        2.35619   0.00199   0.00000   0.00000   0.00000   2.35619
    A2        1.98488   0.01823   0.14800   0.00000   0.14799   2.13287
    A3        1.98488   0.01823   0.14800   0.00000   0.14800   2.13288
    A4        2.31342  -0.03647  -0.29601   0.00000  -0.29601   2.01741
    A5        2.00210   0.01881   0.18233   0.00000   0.18233   2.18443
    A6        2.00920   0.02010   0.19648   0.00000   0.19648   2.20569
    A7        2.27188  -0.03891  -0.37881   0.00000  -0.37881   1.89306
    D1        1.57248   0.00014   0.00336   0.00000   0.00397   1.57645
    D2       -1.57107  -0.00006  -0.00054   0.00000  -0.00115  -1.57222
    D3        3.14153  -0.00001  -0.00012   0.00000  -0.00016   3.14137
    D4        0.00007   0.00001   0.00015   0.00000   0.00019   0.00027
    D5        3.13916  -0.00015  -0.00485   0.00000  -0.00420   3.13496
    D6       -3.14144   0.00002   0.00031   0.00000   0.00026  -3.14118
         Item               Value     Threshold  Converged?
 Maximum Force            0.038914     0.000450     NO 
 RMS     Force            0.016332     0.000300     NO 
 Maximum Displacement     0.392772     0.001800     NO 
 RMS     Displacement     0.151231     0.001200     NO 
 Predicted change in Energy=-2.810228D-02
 GradGradGradGradGradGradGradGradGradGradGradGradGradGradGradGradGradGrad

                          Input orientation:                          
 ---------------------------------------------------------------------
 Center     Atomic      Atomic             Coordinates (Angstroms)
 Number     Number       Type             X           Y           Z
 ---------------------------------------------------------------------
      1         29           0       -0.074472    0.000835    0.014617
      2          8           0       -0.038827    0.000061    3.899656
      3          8           0        1.281443    0.000018   -1.366410
      4          1           0        1.105395    0.000168   -2.328754
      5          1           0        2.247018   -0.000990   -1.229030
      6          1           0       -0.038052    0.835770    4.426279
      7          1           0       -0.035853   -0.835863    4.425931
 ---------------------------------------------------------------------
                    Distance matrix (angstroms):
                    1          2          3          4          5
     1  Cu   0.000000
     2  O    3.885203   0.000000
     3  O    1.935392   5.429049   0.000000
     4  H    2.623638   6.332641   0.978315   0.000000
     5  H    2.633624   5.615025   0.975299   1.585149   0.000000
     6  H    4.490123   0.987797   5.999567   6.901897   6.156641
     7  H    4.490128   0.987797   5.998766   6.901245   6.155249
                    6          7
     6  H    0.000000
     7  H    1.671635   0.000000
 Stoichiometry    CuH4O2(2+,2)
 Framework group  C1[X(CuH4O2)]
 Deg. of freedom    15
 Full point group                 C1      NOp   1
 Largest Abelian subgroup         C1      NOp   1
 Largest concise Abelian subgroup C1      NOp   1
                         Standard orientation:                         
 ---------------------------------------------------------------------
 Center     Atomic      Atomic             Coordinates (Angstroms)
 Number     Number       Type             X           Y           Z
 ---------------------------------------------------------------------
      1         29           0        0.457632    0.382886   -0.000103
      2          8           0       -3.365692   -0.307761    0.000072
      3          8           0        2.047640   -0.720573    0.000242
      4          1           0        2.966482   -0.384674   -0.000027
      5          1           0        2.075147   -1.695484    0.000324
      6          1           0       -3.884595   -0.396444    0.835906
      7          1           0       -3.883958   -0.400425   -0.835724
 ---------------------------------------------------------------------
 Rotational constants (GHZ):     21.4367485      1.6503398      1.5455659
 Standard basis: 6-311G(d) (5D, 7F)
 There are   102 symmetry adapted cartesian basis functions of A   symmetry.
 There are    94 symmetry adapted basis functions of A   symmetry.
    94 basis functions,   165 primitive gaussians,   102 cartesian basis functions
    24 alpha electrons       23 beta electrons
       nuclear repulsion energy       140.8315048123 Hartrees.
 NAtoms=    7 NActive=    7 NUniq=    7 SFac= 1.00D+00 NAtFMM=   60 NAOKFM=F Big=F
 Integral buffers will be    131072 words long.
 Raffenetti 2 integral format.
 Two-electron integral symmetry is turned on.
 One-electron integrals computed using PRISM.
 NBasis=    94 RedAO= T EigKep=  9.37D-03  NBF=    94
 NBsUse=    94 1.00D-06 EigRej= -1.00D+00 NBFU=    94
 Initial guess from the checkpoint file:  "pescuh2o2.chk"
 B after Tr=     0.000000    0.000000    0.000000
         Rot=    0.999996    0.000157    0.000002   -0.002981 Ang=   0.34 deg.
 Initial guess <Sx>= 0.0000 <Sy>= 0.0000 <Sz>= 0.5000 <S**2>= 0.7524 S= 0.5012
 ExpMin= 4.08D-02 ExpMax= 3.37D+05 ExpMxC= 1.14D+04 IAcc=2 IRadAn=         4 AccDes= 0.00D+00
 Harris functional with IExCor=  402 and IRadAn=       4 diagonalized for initial guess.
 HarFok:  IExCor=  402 AccDes= 0.00D+00 IRadAn=         4 IDoV= 1 UseB2=F ITyADJ=14
 ICtDFT=  3500011 ScaDFX=  1.000000  1.000000  1.000000  1.000000
 FoFCou: FMM=F IPFlag=           0 FMFlag=      100000 FMFlg1=           0
         NFxFlg=           0 DoJE=T BraDBF=F KetDBF=T FulRan=T
         wScrn=  0.000000 ICntrl=     500 IOpCl=  0 I1Cent=   200000004 NGrid=           0
         NMat0=    1 NMatS0=      1 NMatT0=    0 NMatD0=    1 NMtDS0=    0 NMtDT0=    0
 Petite list used in FoFCou.
 Keep R1 and R2 ints in memory in canonical form, NReq=21960803.
 Requested convergence on RMS density matrix=1.00D-08 within  64 cycles.
 Requested convergence on MAX density matrix=1.00D-06.
 Requested convergence on             energy=1.00D-06.
 No special actions if energy rises.
 SCF Done:  E(UB3LYP) =  -1792.54146723     A.U. after   24 cycles
            NFock= 24  Conv=0.63D-08     -V/T= 2.0007
 <Sx>= 0.0000 <Sy>= 0.0000 <Sz>= 0.5000 <S**2>= 0.7523 S= 0.5012
 <L.S>= 0.000000000000E+00
 Annihilation of the first spin contaminant:
 S**2 before annihilation     0.7523,   after     0.7500
 QCSCF skips out because SCF is already converged.
 Calling FoFJK, ICntrl=      2127 FMM=F ISym2X=0 I1Cent= 0 IOpClX= 1 NMat=1 NMatS=1 NMatT=0.
 ***** Axes restored to original set *****
 -------------------------------------------------------------------
 Center     Atomic                   Forces (Hartrees/Bohr)
 Number     Number              X              Y              Z
 -------------------------------------------------------------------
      1       29           0.006117371    0.000021222   -0.009728989
      2        8          -0.000064832   -0.000009680   -0.008286385
      3        8          -0.003129851    0.000039211    0.000479318
      4        1           0.001407118   -0.000028023    0.006169179
      5        1          -0.004228122   -0.000020866   -0.001164961
      6        1          -0.000055916   -0.014488089    0.006263101
      7        1          -0.000045768    0.014486225    0.006268737
 -------------------------------------------------------------------
 Cartesian Forces:  Max     0.014488089 RMS     0.006048730

 GradGradGradGradGradGradGradGradGradGradGradGradGradGradGradGradGradGrad
 Berny optimization.
 Using GEDIIS/GDIIS optimizer.
 FormGI is forming the generalized inverse of G from B-inverse, IUseBI=4.
 Internal  Forces:  Max     0.016203509 RMS     0.006065441
 Search for a local minimum.
 Step number   3 out of a maximum of  100 on scan point     1 out of    26
 All quantities printed in internal units (Hartrees-Bohrs-Radians)
 Mixed Optimization -- RFO/linear search
 Update second derivatives using D2CorX and points    2    3
 The second derivative matrix:
                          R1        R2        R3        R4        R5
           R1           0.00858
           R2           0.00017   0.19095
           R3           0.00029   0.00025   0.57410
           R4           0.00029   0.00025  -0.00271   0.57410
           R5           0.00021  -0.00003  -0.00241  -0.00241   0.57474
           R6           0.00017  -0.00028  -0.00258  -0.00258  -0.00216
           A1           0.00000   0.00003   0.00006   0.00006   0.00004
           A2           0.00016  -0.00155  -0.00536  -0.00536  -0.00422
           A3           0.00016  -0.00155  -0.00536  -0.00536  -0.00422
           A4          -0.00032   0.00311   0.01072   0.01072   0.00845
           A5           0.00030   0.00007  -0.00322  -0.00322  -0.00279
           A6           0.00031  -0.00013  -0.00382  -0.00382  -0.00326
           A7          -0.00061   0.00007   0.00704   0.00704   0.00605
           D1           0.00000   0.00000   0.00000   0.00000   0.00000
           D2           0.00000   0.00000   0.00000   0.00000   0.00000
           D3           0.00000   0.00000   0.00001   0.00001   0.00001
           D4           0.00000   0.00000  -0.00001  -0.00001  -0.00001
           D5           0.00000  -0.00001  -0.00001  -0.00001  -0.00001
           D6           0.00000   0.00000  -0.00001  -0.00001  -0.00001
                          R6        A1        A2        A3        A4
           R6           0.57463
           A1           0.00003   0.25000
           A2          -0.00401   0.00003   0.15370
           A3          -0.00401   0.00003  -0.00630   0.15370
           A4           0.00803  -0.00006   0.01261   0.01261   0.13479
           A5          -0.00294   0.00006  -0.00588  -0.00588   0.01177
           A6          -0.00338   0.00006  -0.00654  -0.00654   0.01308
           A7           0.00633  -0.00012   0.01242   0.01242  -0.02485
           D1           0.00000   0.00000   0.00000   0.00000   0.00000
           D2           0.00000   0.00000   0.00000   0.00000   0.00000
           D3           0.00000   0.00000   0.00000   0.00000  -0.00001
           D4           0.00000   0.00000   0.00000   0.00000   0.00001
           D5           0.00000   0.00000   0.00001   0.00001  -0.00002
           D6           0.00000   0.00000  -0.00001  -0.00001   0.00001
                          A5        A6        A7        D1        D2
           A5           0.15624
           A6          -0.00442   0.15486
           A7           0.00818   0.00956   0.14226
           D1           0.00000   0.00000   0.00000   0.00230
           D2           0.00000   0.00000   0.00001   0.00000   0.00230
           D3           0.00001   0.00001  -0.00001   0.00000   0.00000
           D4          -0.00001  -0.00001   0.00001   0.00000   0.00000
           D5           0.00000   0.00000   0.00000   0.00000   0.00000
           D6          -0.00001  -0.00001   0.00002   0.00000   0.00000
                          D3        D4        D5        D6
           D3           0.03612
           D4           0.00000   0.03612
           D5           0.00000   0.00000   0.01690
           D6           0.00000   0.00000   0.00000   0.01690
 ITU=  0  1  0
 Use linear search instead of GDIIS.
     Eigenvalues ---    0.00230   0.01161   0.02477   0.03612   0.08830
     Eigenvalues ---    0.16000   0.16000   0.16523   0.19126   0.56862
     Eigenvalues ---    0.57681   0.57681   0.577021000.000001000.00000
     Eigenvalues --- 1000.000001000.000001000.000001000.00000
 RFO step:  Lambda=-2.89518900D-03 EMin= 2.29999923D-03
 Quartic linear search produced a step of  0.13774.
 Iteration  1 RMS(Cart)=  0.03433429 RMS(Int)=  0.00128434
 Iteration  2 RMS(Cart)=  0.00120507 RMS(Int)=  0.00011716
 Iteration  3 RMS(Cart)=  0.00000022 RMS(Int)=  0.00011716
 Iteration  1 RMS(Cart)=  0.00000000 RMS(Int)=  0.00000000
 Variable       Old X    -DE/DX   Delta X   Delta X   Delta X     New X
                                 (Linear)    (Quad)   (Total)
    R1        7.34197   0.00424   0.00000   0.00000   0.00000   7.34197
    R2        3.65736  -0.00807   0.00872  -0.04808  -0.03936   3.61801
    R3        1.86667  -0.00892   0.00655  -0.01819  -0.01164   1.85503
    R4        1.86667  -0.00892   0.00655  -0.01819  -0.01164   1.85503
    R5        1.84875  -0.00633   0.00491  -0.01285  -0.00794   1.84081
    R6        1.84305  -0.00434   0.00439  -0.00903  -0.00464   1.83840
    A1        2.35619   0.00189   0.00000   0.00000   0.00000   2.35619
    A2        2.13287   0.00810   0.02038   0.04383   0.06421   2.19708
    A3        2.13288   0.00810   0.02038   0.04384   0.06421   2.19709
    A4        2.01741  -0.01620  -0.04077  -0.08771  -0.12849   1.88892
    A5        2.18443   0.00001   0.02511  -0.01247   0.01265   2.19708
    A6        2.20569   0.00051   0.02706  -0.00984   0.01722   2.22291
    A7        1.89306  -0.00052  -0.05218   0.02231  -0.02987   1.86320
    D1        1.57645   0.00013   0.00055   0.01040   0.01123   1.58767
    D2       -1.57222  -0.00006  -0.00016   0.00241   0.00197  -1.57024
    D3        3.14137  -0.00002  -0.00002  -0.00063  -0.00066   3.14071
    D4        0.00027   0.00002   0.00003   0.00057   0.00061   0.00088
    D5        3.13496  -0.00009  -0.00058  -0.00704  -0.00729   3.12767
    D6       -3.14118   0.00003   0.00004   0.00103   0.00105  -3.14013
         Item               Value     Threshold  Converged?
 Maximum Force            0.016204     0.000450     NO 
 RMS     Force            0.006313     0.000300     NO 
 Maximum Displacement     0.076996     0.001800     NO 
 RMS     Displacement     0.034576     0.001200     NO 
 Predicted change in Energy=-2.004801D-03
 GradGradGradGradGradGradGradGradGradGradGradGradGradGradGradGradGradGrad

                          Input orientation:                          
 ---------------------------------------------------------------------
 Center     Atomic      Atomic             Coordinates (Angstroms)
 Number     Number       Type             X           Y           Z
 ---------------------------------------------------------------------
      1         29           0       -0.067104    0.003283   -0.004879
      2          8           0       -0.038504    0.000218    3.880217
      3          8           0        1.276690    0.000099   -1.368613
      4          1           0        1.115271    0.000645   -2.329259
      5          1           0        2.241821   -0.003712   -1.246435
      6          1           0       -0.045188    0.795026    4.456284
      7          1           0       -0.036333   -0.795559    4.454976
 ---------------------------------------------------------------------
                    Distance matrix (angstroms):
                    1          2          3          4          5
     1  Cu   0.000000
     2  O    3.885203   0.000000
     3  O    1.914566   5.411096   0.000000
     4  H    2.607827   6.315758   0.974114   0.000000
     5  H    2.621573   5.610924   0.972841   1.562576   0.000000
     6  H    4.530928   0.981639   6.025670   6.929741   6.195918
     7  H    4.530938   0.981638   6.022565   6.927191   6.190565
                    6          7
     6  H    0.000000
     7  H    1.590610   0.000000
 Stoichiometry    CuH4O2(2+,2)
 Framework group  C1[X(CuH4O2)]
 Deg. of freedom    15
 Full point group                 C1      NOp   1
 Largest Abelian subgroup         C1      NOp   1
 Largest concise Abelian subgroup C1      NOp   1
                         Standard orientation:                         
 ---------------------------------------------------------------------
 Center     Atomic      Atomic             Coordinates (Angstroms)
 Number     Number       Type             X           Y           Z
 ---------------------------------------------------------------------
      1         29           0        0.463730    0.379711   -0.000379
      2          8           0       -3.361324   -0.301292    0.000269
      3          8           0        2.033870   -0.715836    0.000886
      4          1           0        2.953735   -0.395298   -0.000141
      5          1           0        2.075597   -1.687782    0.001290
      6          1           0       -3.930166   -0.388044    0.795572
      7          1           0       -3.927702   -0.403464   -0.794961
 ---------------------------------------------------------------------
 Rotational constants (GHZ):     21.8801925      1.6532171      1.5490915
 Standard basis: 6-311G(d) (5D, 7F)
 There are   102 symmetry adapted cartesian basis functions of A   symmetry.
 There are    94 symmetry adapted basis functions of A   symmetry.
    94 basis functions,   165 primitive gaussians,   102 cartesian basis functions
    24 alpha electrons       23 beta electrons
       nuclear repulsion energy       141.6421256018 Hartrees.
 NAtoms=    7 NActive=    7 NUniq=    7 SFac= 1.00D+00 NAtFMM=   60 NAOKFM=F Big=F
 Integral buffers will be    131072 words long.
 Raffenetti 2 integral format.
 Two-electron integral symmetry is turned on.
 One-electron integrals computed using PRISM.
 GSVD:  received Info=                   1 from GESDD.
 NBasis=    94 RedAO= T EigKep=  9.37D-03  NBF=    94
 NBsUse=    94 1.00D-06 EigRej= -1.00D+00 NBFU=    94
 Initial guess from the checkpoint file:  "pescuh2o2.chk"
 B after Tr=     0.000000    0.000000    0.000000
         Rot=    0.999999    0.000683    0.000009    0.000944 Ang=   0.13 deg.
 Initial guess <Sx>= 0.0000 <Sy>= 0.0000 <Sz>= 0.5000 <S**2>= 0.7523 S= 0.5012
 ExpMin= 4.08D-02 ExpMax= 3.37D+05 ExpMxC= 1.14D+04 IAcc=2 IRadAn=         4 AccDes= 0.00D+00
 Harris functional with IExCor=  402 and IRadAn=       4 diagonalized for initial guess.
 HarFok:  IExCor=  402 AccDes= 0.00D+00 IRadAn=         4 IDoV= 1 UseB2=F ITyADJ=14
 ICtDFT=  3500011 ScaDFX=  1.000000  1.000000  1.000000  1.000000
 FoFCou: FMM=F IPFlag=           0 FMFlag=      100000 FMFlg1=           0
         NFxFlg=           0 DoJE=T BraDBF=F KetDBF=T FulRan=T
         wScrn=  0.000000 ICntrl=     500 IOpCl=  0 I1Cent=   200000004 NGrid=           0
         NMat0=    1 NMatS0=      1 NMatT0=    0 NMatD0=    1 NMtDS0=    0 NMtDT0=    0
 Petite list used in FoFCou.
 Keep R1 and R2 ints in memory in canonical form, NReq=21960832.
 Requested convergence on RMS density matrix=1.00D-08 within  64 cycles.
 Requested convergence on MAX density matrix=1.00D-06.
 Requested convergence on             energy=1.00D-06.
 No special actions if energy rises.
 SCF Done:  E(UB3LYP) =  -1792.54365878     A.U. after   19 cycles
            NFock= 19  Conv=0.69D-08     -V/T= 2.0007
 <Sx>= 0.0000 <Sy>= 0.0000 <Sz>= 0.5000 <S**2>= 0.7523 S= 0.5011
 <L.S>= 0.000000000000E+00
 Annihilation of the first spin contaminant:
 S**2 before annihilation     0.7523,   after     0.7500
 QCSCF skips out because SCF is already converged.
 Calling FoFJK, ICntrl=      2127 FMM=F ISym2X=0 I1Cent= 0 IOpClX= 1 NMat=1 NMatS=1 NMatT=0.
 ***** Axes restored to original set *****
 -------------------------------------------------------------------
 Center     Atomic                   Forces (Hartrees/Bohr)
 Number     Number              X              Y              Z
 -------------------------------------------------------------------
      1       29           0.003557680    0.000026038   -0.006816063
      2        8          -0.000115112   -0.000015030    0.002006935
      3        8           0.000403138   -0.000000596   -0.001603994
      4        1          -0.002409499   -0.000005795    0.001920999
      5        1          -0.001368662   -0.000005545    0.002431680
      6        1          -0.000047064   -0.002051921    0.001028709
      7        1          -0.000020480    0.002052849    0.001031734
 -------------------------------------------------------------------
 Cartesian Forces:  Max     0.006816063 RMS     0.002112607

 GradGradGradGradGradGradGradGradGradGradGradGradGradGradGradGradGradGrad
 Berny optimization.
 Using GEDIIS/GDIIS optimizer.
 FormGI is forming the generalized inverse of G from B-inverse, IUseBI=4.
 Internal  Forces:  Max     0.004316370 RMS     0.001909309
 Search for a local minimum.
 Step number   4 out of a maximum of  100 on scan point     1 out of    26
 All quantities printed in internal units (Hartrees-Bohrs-Radians)
 Mixed Optimization -- RFO/linear search
 Update second derivatives using D2CorX and points    3    4
 DE= -2.19D-03 DEPred=-2.00D-03 R= 1.09D+00
 TightC=F SS=  1.41D+00  RLast= 1.68D-01 DXNew= 8.4853D-01 5.0373D-01
 Trust test= 1.09D+00 RLast= 1.68D-01 DXMaxT set to 5.05D-01
 The second derivative matrix:
                          R1        R2        R3        R4        R5
           R1           0.00859
           R2           0.00013   0.17641
           R3           0.00004  -0.01154   0.57013
           R4           0.00004  -0.01155  -0.00669   0.57011
           R5           0.00007  -0.00929  -0.00708  -0.00708   0.57029
           R6           0.00008  -0.00671  -0.00589  -0.00589  -0.00528
           A1           0.00000   0.00000  -0.00005  -0.00005  -0.00002
           A2           0.00038   0.00796  -0.00274  -0.00273  -0.00074
           A3           0.00038   0.00797  -0.00273  -0.00272  -0.00074
           A4          -0.00076  -0.01595   0.00543   0.00542   0.00146
           A5           0.00040  -0.00313  -0.00876  -0.00876  -0.00632
           A6           0.00042  -0.00266  -0.00897  -0.00897  -0.00644
           A7          -0.00083   0.00579   0.01773   0.01773   0.01276
           D1           0.00000  -0.00001  -0.00007  -0.00007  -0.00004
           D2           0.00000   0.00007   0.00014   0.00014   0.00009
           D3           0.00000  -0.00004  -0.00003  -0.00003  -0.00002
           D4           0.00000   0.00003   0.00002   0.00002   0.00002
           D5           0.00000  -0.00023  -0.00019  -0.00019  -0.00015
           D6           0.00000   0.00002   0.00000   0.00000   0.00000
                          R6        A1        A2        A3        A4
           R6           0.57244
           A1          -0.00001   0.25000
           A2          -0.00154   0.00013   0.15211
           A3          -0.00154   0.00013  -0.00790   0.15209
           A4           0.00307  -0.00025   0.01582   0.01584   0.12829
           A5          -0.00536   0.00009  -0.00110  -0.00111   0.00221
           A6          -0.00555   0.00010  -0.00206  -0.00206   0.00412
           A7           0.01091  -0.00019   0.00316   0.00317  -0.00633
           D1          -0.00003   0.00000   0.00007   0.00007  -0.00013
           D2           0.00006   0.00000  -0.00013  -0.00013   0.00025
           D3          -0.00002   0.00000   0.00003   0.00003  -0.00007
           D4           0.00001   0.00000  -0.00002  -0.00002   0.00005
           D5          -0.00010   0.00000   0.00016   0.00016  -0.00032
           D6           0.00000   0.00000  -0.00001  -0.00001   0.00002
                          A5        A6        A7        D1        D2
           A5           0.15709
           A6          -0.00333   0.15615
           A7           0.00624   0.00719   0.14658
           D1           0.00004   0.00004  -0.00007   0.00230
           D2          -0.00003  -0.00004   0.00007   0.00000   0.00230
           D3           0.00000   0.00000   0.00000   0.00000   0.00000
           D4           0.00000   0.00000   0.00000   0.00000   0.00000
           D5          -0.00005  -0.00003   0.00008   0.00000   0.00000
           D6           0.00000   0.00000   0.00000   0.00000   0.00000
                          D3        D4        D5        D6
           D3           0.03612
           D4           0.00000   0.03612
           D5           0.00000   0.00000   0.01689
           D6           0.00000   0.00000   0.00000   0.01690
 ITU=  1  0  1  0
 Use linear search instead of GDIIS.
     Eigenvalues ---    0.00230   0.01096   0.02498   0.03612   0.10496
     Eigenvalues ---    0.13575   0.16000   0.16002   0.18348   0.55598
     Eigenvalues ---    0.57676   0.57681   0.577921000.000001000.00000
     Eigenvalues --- 1000.000001000.000001000.000001000.00000
 RFO step:  Lambda=-2.57055785D-04 EMin= 2.29974158D-03
 Quartic linear search produced a step of  0.15832.
 Iteration  1 RMS(Cart)=  0.01323566 RMS(Int)=  0.00008420
 Iteration  2 RMS(Cart)=  0.00008037 RMS(Int)=  0.00002379
 Iteration  3 RMS(Cart)=  0.00000000 RMS(Int)=  0.00002379
 Iteration  1 RMS(Cart)=  0.00000000 RMS(Int)=  0.00000000
 Variable       Old X    -DE/DX   Delta X   Delta X   Delta X     New X
                                 (Linear)    (Quad)   (Total)
    R1        7.34197   0.00406   0.00000   0.00000   0.00000   7.34197
    R2        3.61801  -0.00432  -0.00623  -0.02279  -0.02902   3.58899
    R3        1.85503  -0.00106  -0.00184  -0.00151  -0.00336   1.85167
    R4        1.85503  -0.00106  -0.00184  -0.00152  -0.00336   1.85166
    R5        1.84081  -0.00150  -0.00126  -0.00267  -0.00392   1.83688
    R6        1.83840  -0.00105  -0.00074  -0.00205  -0.00278   1.83562
    A1        2.35619   0.00183   0.00000   0.00000   0.00000   2.35619
    A2        2.19708   0.00126   0.01016   0.00083   0.01099   2.20807
    A3        2.19709   0.00126   0.01017   0.00086   0.01102   2.20811
    A4        1.88892  -0.00252  -0.02034  -0.00173  -0.02207   1.86685
    A5        2.19708  -0.00171   0.00200  -0.01497  -0.01296   2.18412
    A6        2.22291  -0.00152   0.00273  -0.01433  -0.01160   2.21131
    A7        1.86320   0.00323  -0.00473   0.02929   0.02456   1.88776
    D1        1.58767   0.00007   0.00178   0.01194   0.01378   1.60145
    D2       -1.57024   0.00000   0.00031   0.00838   0.00864  -1.56161
    D3        3.14071  -0.00001  -0.00011  -0.00031  -0.00041   3.14030
    D4        0.00088   0.00000   0.00010   0.00015   0.00025   0.00112
    D5        3.12767  -0.00004  -0.00115  -0.00302  -0.00411   3.12356
    D6       -3.14013   0.00001   0.00017   0.00041   0.00058  -3.13955
         Item               Value     Threshold  Converged?
 Maximum Force            0.004316     0.000450     NO 
 RMS     Force            0.001705     0.000300     NO 
 Maximum Displacement     0.028680     0.001800     NO 
 RMS     Displacement     0.013249     0.001200     NO 
 Predicted change in Energy=-1.766464D-04
 GradGradGradGradGradGradGradGradGradGradGradGradGradGradGradGradGradGrad

                          Input orientation:                          
 ---------------------------------------------------------------------
 Center     Atomic      Atomic             Coordinates (Angstroms)
 Number     Number       Type             X           Y           Z
 ---------------------------------------------------------------------
      1         29           0       -0.058138    0.007164   -0.014928
[...]
           A6         125.06374 125.06132 125.06790 125.12187 125.20791
           A7         108.72408 108.64417 108.58304 108.50653 108.41742
           D1         -79.04445 -79.77344 -80.61318 -81.67322 -82.65990
           D2          79.06480  79.69374  80.63010  81.68105  82.64078
           D3          83.16607  82.90581  82.76617  82.88772  83.10070
           D4         -83.19562 -82.89806 -82.82261 -82.84955 -83.09845
           D5         161.08321 162.23078 163.76596 165.61209 167.32794
           D6        -168.24167-167.76877-167.59002-167.73102-168.14525
                          21        22        23        24        25
     Eigenvalues --  **************************************************
           R1           1.88520   1.78520   1.68520   1.58520   1.48520
           R2           1.85680   1.85726   1.85762   1.85788   1.85862
           R3           0.97686   0.97857   0.98097   0.98427   0.98898
           R4           0.97686   0.97857   0.98096   0.98427   0.98898
           R5           0.97731   0.97717   0.97694   0.97665   0.97631
           R6           0.97731   0.97717   0.97694   0.97665   0.97630
           A1         135.00000 135.00000 135.00000 135.00000 135.00000
           A2         125.26656 125.57482 125.97547 126.46532 127.10370
           A3         125.27058 125.57888 125.95551 126.47435 127.10357
           A4         108.41682 107.95909 107.27283 106.31380 105.00149
           A5         125.31676 125.43356 125.51898 125.56507 125.58796
           A6         125.31563 125.43297 125.52172 125.56131 125.58849
           A7         108.32733 108.27825 108.26279 108.28603 108.33078
           D1         -83.49850 -83.93544 -84.29292 -84.31607 -84.12057
           D2          83.43161  83.96620  84.16799  84.40913  84.13597
           D3          83.48178  84.06210  84.72421  84.98090  85.50088
           D4         -83.47326 -84.09236 -84.57463 -85.18634 -85.49349
           D5         168.77897 169.67718 170.23709 170.57168 170.32543
           D6        -168.81246-169.85479-170.84269-171.58679-172.29349
                          26
     Eigenvalues --  **********
           R1           1.38520
           R2           1.86074
           R3           0.99591
           R4           0.99588
           R5           0.97599
           R6           0.97600
           A1         135.00000
           A2         127.96281
           A3         127.92150
           A4         103.22465
           A5         125.61258
           A6         125.60841
           A7         108.39269
           D1         -83.61507
           D2          83.72906
           D3          85.97285
           D4         -86.05299
           D5         169.77338
           D6        -173.17377
                          Input orientation:                          
 ---------------------------------------------------------------------
 Center     Atomic      Atomic             Coordinates (Angstroms)
 Number     Number       Type             X           Y           Z
 ---------------------------------------------------------------------
      1         29           0        0.633806    0.699375    1.298407
      2          8           0        0.277662    0.183920    2.533824
      3          8           0        1.022384   -0.029508   -0.368954
      4          1           0        0.368151   -0.253878   -1.057578
      5          1           0        1.897011   -0.351659   -0.658470
      6          1           0       -0.630001   -0.076207    2.850540
      7          1           0        0.877640   -0.172044    3.244519
 ---------------------------------------------------------------------
                    Distance matrix (angstroms):
                    1          2          3          4          5
     1  Cu   0.000000
     2  O    1.385203   0.000000
     3  O    1.860741   3.004378   0.000000
     4  H    2.555372   3.619119   0.975994   0.000000
     5  H    2.555333   3.619375   0.975998   1.583118   0.000000
     6  H    2.146591   0.995906   3.619075   4.037482   4.332992
     7  H    2.146201   0.995877   3.619179   4.332934   4.037908
                    6          7
     6  H    0.000000
     7  H    1.561213   0.000000
 Stoichiometry    CuH4O2(2+,2)
 Framework group  C1[X(CuH4O2)]
 Deg. of freedom    15
 Full point group                 C1      NOp   1
 Largest Abelian subgroup         C1      NOp   1
 Largest concise Abelian subgroup C1      NOp   1
                         Standard orientation:                         
 ---------------------------------------------------------------------
 Center     Atomic      Atomic             Coordinates (Angstroms)
 Number     Number       Type             X           Y           Z
 ---------------------------------------------------------------------
      1         29           0       -0.114117    0.267764   -0.000160
      2          8           0       -1.338496   -0.380067    0.000169
      3          8           0        1.664211   -0.279872    0.000160
      4          1           0        2.190974   -0.500816   -0.791212
      5          1           0        2.191223   -0.498896    0.791904
      6          1           0       -1.839151   -0.744181   -0.779955
      7          1           0       -1.839362   -0.741740    0.781256
 ---------------------------------------------------------------------
 Rotational constants (GHZ):     42.0014018      5.4487830      5.0638718

 **********************************************************************

            Population analysis using the SCF density.

 **********************************************************************

 Orbital symmetries:
 Alpha Orbitals:
       Occupied  (A) (A) (A) (A) (A) (A) (A) (A) (A) (A) (A) (A)
                 (A) (A) (A) (A) (A) (A) (A) (A) (A) (A) (A) (A)
       Virtual   (A) (A) (A) (A) (A) (A) (A) (A) (A) (A) (A) (A)
                 (A) (A) (A) (A) (A) (A) (A) (A) (A) (A) (A) (A)
                 (A) (A) (A) (A) (A) (A) (A) (A) (A) (A) (A) (A)
                 (A) (A) (A) (A) (A) (A) (A) (A) (A) (A) (A) (A)
                 (A) (A) (A) (A) (A) (A) (A) (A) (A) (A) (A) (A)
                 (A) (A) (A) (A) (A) (A) (A) (A) (A) (A)
 Beta  Orbitals:
       Occupied  (A) (A) (A) (A) (A) (A) (A) (A) (A) (A) (A) (A)
                 (A) (A) (A) (A) (A) (A) (A) (A) (A) (A) (A)
       Virtual   (A) (A) (A) (A) (A) (A) (A) (A) (A) (A) (A) (A)
                 (A) (A) (A) (A) (A) (A) (A) (A) (A) (A) (A) (A)
                 (A) (A) (A) (A) (A) (A) (A) (A) (A) (A) (A) (A)
                 (A) (A) (A) (A) (A) (A) (A) (A) (A) (A) (A) (A)
                 (A) (A) (A) (A) (A) (A) (A) (A) (A) (A) (A) (A)
                 (A) (A) (A) (A) (A) (A) (A) (A) (A) (A) (A)
 The electronic state is 2-A.
 Alpha  occ. eigenvalues -- -323.58645 -39.40840 -34.64164 -34.62773 -34.60818
 Alpha  occ. eigenvalues --  -19.71094 -19.62028  -4.94570  -3.48420  -3.43860
 Alpha  occ. eigenvalues --   -3.39989  -1.61932  -1.50204  -1.14265  -1.12712
 Alpha  occ. eigenvalues --   -1.03797  -1.01877  -0.95217  -0.89171  -0.88794
 Alpha  occ. eigenvalues --   -0.88196  -0.84963  -0.82010  -0.79510
 Alpha virt. eigenvalues --   -0.46430  -0.37622  -0.33488  -0.32064  -0.26940
 Alpha virt. eigenvalues --   -0.19887  -0.18528  -0.03541  -0.03031   0.01321
 Alpha virt. eigenvalues --    0.13678   0.21965   0.28984   0.31815   0.35507
 Alpha virt. eigenvalues --    0.39774   0.58309   0.67527   0.85863   0.89343
 Alpha virt. eigenvalues --    0.95776   0.97744   1.03202   1.12549   1.19257
 Alpha virt. eigenvalues --    1.50173   1.53784   1.59610   1.60397   1.63445
 Alpha virt. eigenvalues --    2.12554   2.15894   2.23156   2.26362   2.33205
 Alpha virt. eigenvalues --    2.50178   2.60639   2.65387   2.66730   2.93103
 Alpha virt. eigenvalues --    3.13678   3.38253   3.38574   3.39111   3.40184
 Alpha virt. eigenvalues --    3.54226   3.63351   3.70834   4.23972   4.28052
 Alpha virt. eigenvalues --    4.41953   4.47237   4.51275   5.31569   6.58890
 Alpha virt. eigenvalues --    6.59067   6.73136   6.74923   6.91177   8.87796
 Alpha virt. eigenvalues --    8.90110   9.52107  31.52951  42.26147  42.26827
 Alpha virt. eigenvalues --   42.71568  49.20631  49.24315 183.55595 978.82617
  Beta  occ. eigenvalues -- -323.58621 -39.38766 -34.61667 -34.60798 -34.60227
  Beta  occ. eigenvalues --  -19.70565 -19.61691  -4.90411  -3.41781  -3.38909
  Beta  occ. eigenvalues --   -3.38555  -1.60571  -1.49466  -1.12261  -1.12115
  Beta  occ. eigenvalues --   -1.01588  -0.98529  -0.93811  -0.87168  -0.86615
  Beta  occ. eigenvalues --   -0.86211  -0.81590  -0.79189
  Beta virt. eigenvalues --   -0.63777  -0.45821  -0.37330  -0.33294  -0.31828
  Beta virt. eigenvalues --   -0.26826  -0.19684  -0.18419  -0.03420  -0.02744
  Beta virt. eigenvalues --    0.01463   0.15083   0.23082   0.29290   0.32915
  Beta virt. eigenvalues --    0.35815   0.40001   0.59100   0.68027   0.86577
  Beta virt. eigenvalues --    0.90481   0.97538   1.00592   1.03801   1.13897
  Beta virt. eigenvalues --    1.19927   1.52150   1.53952   1.59864   1.60507
  Beta virt. eigenvalues --    1.63568   2.14048   2.17280   2.24623   2.27102
  Beta virt. eigenvalues --    2.34115   2.51570   2.61584   2.65959   2.67520
  Beta virt. eigenvalues --    2.93470   3.15589   3.39000   3.39382   3.41528
  Beta virt. eigenvalues --    3.42388   3.57407   3.65358   3.72014   4.25168
  Beta virt. eigenvalues --    4.29756   4.42512   4.47944   4.51562   5.33197
  Beta virt. eigenvalues --    6.60598   6.60735   6.76580   6.80665   6.92797
  Beta virt. eigenvalues --    8.88795   8.93227   9.55800  31.55700  42.26986
  Beta virt. eigenvalues --   42.29391  42.74733  49.21140  49.24679 183.56651
  Beta virt. eigenvalues --  978.82841
          Condensed to atoms (all electrons):
               1          2          3          4          5          6
     1  Cu  27.446739   0.027590   0.093631  -0.005579  -0.005576  -0.012659
     2  O    0.027590   8.393531  -0.001520   0.000388   0.000388   0.227507
     3  O    0.093631  -0.001520   8.318540   0.246058   0.246054   0.000594
     4  H   -0.005579   0.000388   0.246058   0.209455  -0.015341   0.000091
     5  H   -0.005576   0.000388   0.246054  -0.015341   0.209466  -0.000011
     6  H   -0.012659   0.227507   0.000594   0.000091  -0.000011   0.208711
     7  H   -0.012647   0.227497   0.000593  -0.000011   0.000091  -0.014741
               7
     1  Cu  -0.012647
     2  O    0.227497
     3  O    0.000593
     4  H   -0.000011
     5  H    0.000091
     6  H   -0.014741
     7  H    0.208760
          Atomic-Atomic Spin Densities.
               1          2          3          4          5          6
     1  Cu   0.774417  -0.070335  -0.022319   0.000553   0.000553   0.000705
     2  O   -0.070335   0.305909  -0.007398   0.000101   0.000101  -0.001722
     3  O   -0.022319  -0.007398   0.133961  -0.001212  -0.001212  -0.000063
     4  H    0.000553   0.000101  -0.001212  -0.000856   0.000383  -0.000004
     5  H    0.000553   0.000101  -0.001212   0.000383  -0.000854   0.000000
     6  H    0.000705  -0.001722  -0.000063  -0.000004   0.000000  -0.004044
     7  H    0.000705  -0.001720  -0.000063   0.000000  -0.000003   0.000703
               7
     1  Cu   0.000705
     2  O   -0.001720
     3  O   -0.000063
     4  H    0.000000
     5  H   -0.000003
     6  H    0.000703
     7  H   -0.004040
 Mulliken charges and spin densities:
               1          2
     1  Cu   1.468501   0.684279
     2  O   -0.875381   0.224935
     3  O   -0.903951   0.101694
     4  H    0.564937  -0.001034
     5  H    0.564928  -0.001032
     6  H    0.590507  -0.004424
     7  H    0.590458  -0.004418
 Sum of Mulliken charges =   2.00000   1.00000
 Mulliken charges and spin densities with hydrogens summed into heavy atoms:
               1          2
     1  Cu   1.468501   0.684279
     2  O    0.305584   0.216093
     3  O    0.225915   0.099628
 Electronic spatial extent (au):  <R**2>=            238.1435
 Charge=              2.0000 electrons
 Dipole moment (field-independent basis, Debye):
    X=             -0.6190    Y=             -2.2585    Z=              0.0027  Tot=              2.3418
 Quadrupole moment (field-independent basis, Debye-Ang):
   XX=              5.4333   YY=            -17.5105   ZZ=            -14.4145
   XY=              1.5199   XZ=             -0.0023   YZ=              0.0069
 Traceless Quadrupole moment (field-independent basis, Debye-Ang):
   XX=             14.2638   YY=             -8.6799   ZZ=             -5.5839
   XY=              1.5199   XZ=             -0.0023   YZ=              0.0069
 Octapole moment (field-independent basis, Debye-Ang**2):
  XXX=              8.7293  YYY=              4.7071  ZZZ=              0.0073  XYY=             -4.1345
  XXY=            -19.5109  XXZ=              0.0211  XZZ=             -0.0395  YZZ=             -2.2116
  YYZ=             -0.0120  XYZ=              0.0023
 Hexadecapole moment (field-independent basis, Debye-Ang**3):
 XXXX=            -53.0917 YYYY=            -25.7724 ZZZZ=            -12.2492 XXXY=             -1.3878
 XXXZ=             -0.0007 YYYX=              2.8551 YYYZ=              0.0131 ZZZX=             -0.0051
 ZZZY=              0.0017 XXYY=            -23.5603 XXZZ=             -7.1759 YYZZ=             -4.5877
 XXYZ=              0.0266 YYXZ=              0.0027 ZZXY=              0.9627
 N-N= 2.152259527106D+02 E-N=-4.690441645050D+03  KE= 1.792512132216D+03
                          Isotropic Fermi Contact Couplings
        Atom                 a.u.       MegaHertz       Gauss      10(-4) cm-1
     1  Cu(63)             0.02960      35.10932      12.52788      11.71121
     2  O(17)              0.07016     -42.53208     -15.17650     -14.18718
     3  O(17)              0.08190     -49.64479     -17.71450     -16.55972
     4  H(1)              -0.00011      -0.47250      -0.16860      -0.15761
     5  H(1)              -0.00010      -0.46819      -0.16706      -0.15617
     6  H(1)              -0.00132      -5.91356      -2.11010      -1.97255
     7  H(1)              -0.00132      -5.90693      -2.10774      -1.97034
 --------------------------------------------------------
       Center         ----  Spin Dipole Couplings  ----
                      3XX-RR        3YY-RR        3ZZ-RR
 --------------------------------------------------------
     1   Atom        1.808824      1.776085     -3.584908
     2   Atom        0.520924     -0.094601     -0.426324
     3   Atom        0.285010     -0.034725     -0.250286
     4   Atom        0.007987     -0.014100      0.006113
     5   Atom        0.007998     -0.014148      0.006150
     6   Atom        0.005596     -0.015495      0.009899
     7   Atom        0.005619     -0.015650      0.010030
 --------------------------------------------------------
                        XY            XZ            YZ
 --------------------------------------------------------
     1   Atom        1.228758     -0.000614     -0.005081
     2   Atom       -0.483957      0.000849     -0.000522
     3   Atom        0.321548     -0.000462     -0.000301
     4   Atom       -0.005976     -0.018212      0.009983
     5   Atom       -0.005936      0.018225     -0.009932
     6   Atom        0.014484      0.026243      0.025193
     7   Atom        0.014421     -0.026285     -0.025110
 --------------------------------------------------------


 ---------------------------------------------------------------------------------
              Anisotropic Spin Dipole Couplings in Principal Axis System
 ---------------------------------------------------------------------------------

       Atom             a.u.   MegaHertz   Gauss  10(-4) cm-1        Axes

              Baa    -3.5849  -507.558  -181.109  -169.303 -0.0001  0.0010  1.0000
     1 Cu(63) Bbb     0.5636    79.794    28.472    26.616 -0.7024  0.7118 -0.0008
              Bcc     3.0213   427.764   152.637   142.687  0.7118  0.7024 -0.0006
 
              Baa    -0.4263    30.849    11.008    10.290 -0.0004  0.0010  1.0000
     2 O(17)  Bbb    -0.3604    26.076     9.304     8.698  0.4813  0.8765 -0.0007
              Bcc     0.7867   -56.924   -20.312   -18.988  0.8765 -0.4813  0.0008
 
              Baa    -0.2503    18.111     6.462     6.041  0.0002  0.0011  1.0000
     3 O(17)  Bbb    -0.2340    16.929     6.041     5.647 -0.5267  0.8501 -0.0008
              Bcc     0.4842   -35.039   -12.503   -11.688  0.8501  0.5267 -0.0008
 
              Baa    -0.0183    -9.786    -3.492    -3.264 -0.1019  0.8922 -0.4401
     4 H(1)   Bbb    -0.0099    -5.296    -1.890    -1.767  0.7199  0.3714  0.5863
              Bcc     0.0283    15.083     5.382     5.031  0.6865 -0.2571 -0.6802
 
              Baa    -0.0183    -9.786    -3.492    -3.264 -0.1017  0.8932  0.4379
     5 H(1)   Bbb    -0.0099    -5.296    -1.890    -1.767  0.7198  0.3699 -0.5874
              Bcc     0.0283    15.083     5.382     5.031  0.6867 -0.2555  0.6806
 
              Baa    -0.0311   -16.597    -5.922    -5.536  0.0683  0.8300 -0.5536
     6 H(1)   Bbb    -0.0159    -8.507    -3.035    -2.838  0.8076 -0.3718 -0.4577
              Bcc     0.0471    25.104     8.958     8.374  0.5857  0.4159  0.6957
 
              Baa    -0.0311   -16.598    -5.922    -5.536  0.0677  0.8318  0.5510
     7 H(1)   Bbb    -0.0159    -8.507    -3.035    -2.838  0.8075 -0.3700  0.4594
              Bcc     0.0471    25.105     8.958     8.374 -0.5860 -0.4138  0.6967
 

 ---------------------------------------------------------------------------------

 B after Tr=     1.675414   -1.824290   -0.649855
         Rot=    0.747514    0.185221    0.021958   -0.637521 Ang=  83.25 deg.
 Atom   5 needs variable   3=   0.9759979867 but is    0.9759944384
 Input z-matrix variables are not compatible with final structure.
 1\1\GINC-MILLENNIUM-FALCON\Scan\UB3LYP\6-311G(d)\Cu1H4O2(2+,2)\JAKE\17
 -Jun-2016\0\\#opt=(modredundant,maxcycles=350) B3LYP/6-311G* scf=xqc\\
 cu2(h20)2\\2,2\Cu,-0.6102609084,1.2430459172,0.9556906326\O,-0.9664043
 483,0.7275911895,2.1911078193\O,-0.2216822135,0.5141632146,-0.71167081
 2\H,-0.8759155984,0.2897936848,-1.400294175\H,0.6529444412,0.192012497
 3,-1.0011862698\H,-1.8740679726,0.4674641631,2.5078239361\H,-0.3664265
 884,0.3716276365,2.9018027617\\Version=EM64L-G09RevD.01\State=2-A\HF=-
 1792.5438617,-1792.5431437,-1792.5425121,-1792.5422597,-1792.5419344,-
 1792.541829,-1792.5420019,-1792.5425257,-1792.5434831,-1792.5492463,-1
 792.5514366,-1792.5543441,-1792.5580359,-1792.5625749,-1792.5679744,-1
 792.5741668,-1792.5809637,-1792.5880114,-1792.5947762,-1792.6004177,-1
 792.6036346,-1792.6022808,-1792.5928643,-1792.5699721,-1792.5250538,-1
 792.4447855\S2=0.752289,0.752265,0.75224,0.752325,0.752319,0.752284,0.
 752292,0.75232,0.752368,0.759693,0.759167,0.758484,0.75762,0.756575,0.
 755411,0.754251,0.753232,0.752462,0.751947,0.75165,0.75151,0.751475,0.
 751498,0.751549,0.751604,0.751639\S2-1=0.,0.,0.,0.,0.,0.,0.,0.,0.,0.,0
 .,0.,0.,0.,0.,0.,0.,0.,0.,0.,0.,0.,0.,0.,0.,0.\S2A=0.750004,0.750004,0
 .750003,0.750004,0.750004,0.750003,0.750003,0.750003,0.750003,0.750011
 ,0.75001,0.750009,0.750008,0.750007,0.750006,0.750005,0.750004,0.75000
 3,0.750002,0.750002,0.750002,0.750002,0.750002,0.750002,0.750002,0.750
 002\RMSD=2.867e-09,3.268e-09,3.431e-09,4.911e-09,8.550e-09,1.371e-09,4
 .160e-09,4.244e-09,6.965e-09,1.613e-09,9.416e-09,9.194e-09,1.478e-09,3
 .114e-09,1.204e-09,5.392e-09,6.695e-09,8.499e-09,9.532e-10,6.455e-09,2
 .962e-09,2.423e-09,7.624e-09,2.481e-09,9.223e-09,7.966e-09\PG=C01 [X(C
 u1H4O2)]\\@


 Everywhere is walking distance if you have the time.
                                    -- Steven Wright
 Job cpu time:       0 days  1 hours  0 minutes  9.4 seconds.
 File lengths (MBytes):  RWF=     10 Int=      0 D2E=      0 Chk=      3 Scr=      1
 Normal termination of Gaussian 09 at Fri Jun 17 15:32:46 2016.
