 Entering Gaussian System, Link 0=g09
 Input=2coord_b3lyp_A_F_130.inp
 Output=2coord_b3lyp_A_F_130.log
 Initial command:
 /usr/local/g09/l1.exe "./Gau-6284.inp" -scrdir="./"
 Entering Link 1 = /usr/local/g09/l1.exe PID=      6286.
  
 Copyright (c) 1988,1990,1992,1993,1995,1998,2003,2009,2013,
            Gaussian, Inc.  All Rights Reserved.
  
 This is part of the Gaussian(R) 09 program.  It is based on
 the Gaussian(R) 03 system (copyright 2003, Gaussian, Inc.),
 the Gaussian(R) 98 system (copyright 1998, Gaussian, Inc.),
 the Gaussian(R) 94 system (copyright 1995, Gaussian, Inc.),
 the Gaussian 92(TM) system (copyright 1992, Gaussian, Inc.),
 the Gaussian 90(TM) system (copyright 1990, Gaussian, Inc.),
 the Gaussian 88(TM) system (copyright 1988, Gaussian, Inc.),
 the Gaussian 86(TM) system (copyright 1986, Carnegie Mellon
 University), and the Gaussian 82(TM) system (copyright 1983,
 Carnegie Mellon University). Gaussian is a federally registered
 trademark of Gaussian, Inc.
  
 This software contains proprietary and confidential information,
 including trade secrets, belonging to Gaussian, Inc.
  
 This software is provided under written license and may be
 used, copied, transmitted, or stored only in accord with that
 written license.
  
 The following legend is applicable only to US Government
 contracts under FAR:
  
                    RESTRICTED RIGHTS LEGEND
  
 Use, reproduction and disclosure by the US Government is
 subject to restrictions as set forth in subparagraphs (a)
 and (c) of the Commercial Computer Software - Restricted
 Rights clause in FAR 52.227-19.
  
 Gaussian, Inc.
 340 Quinnipiac St., Bldg. 40, Wallingford CT 06492
  
  
 ---------------------------------------------------------------
 Warning -- This program may not be used in any manner that
 competes with the business of Gaussian, Inc. or will provide
 assistance to any competitor of Gaussian, Inc.  The licensee
 of this program is prohibited from giving any competitor of
 Gaussian, Inc. access to this program.  By using this program,
 the user acknowledges that Gaussian, Inc. is engaged in the
 business of creating and licensing software in the field of
 computational chemistry and represents and warrants to the
 licensee that it is not a competitor of Gaussian, Inc. and that
 it will not use this program in any manner prohibited above.
 ---------------------------------------------------------------
  

 Cite this work as:
 Gaussian 09, Revision D.01,
 M. J. Frisch, G. W. Trucks, H. B. Schlegel, G. E. Scuseria, 
 M. A. Robb, J. R. Cheeseman, G. Scalmani, V. Barone, B. Mennucci, 
 G. A. Petersson, H. Nakatsuji, M. Caricato, X. Li, H. P. Hratchian, 
 A. F. Izmaylov, J. Bloino, G. Zheng, J. L. Sonnenberg, M. Hada, 
 M. Ehara, K. Toyota, R. Fukuda, J. Hasegawa, M. Ishida, T. Nakajima, 
 Y. Honda, O. Kitao, H. Nakai, T. Vreven, J. A. Montgomery, Jr., 
 J. E. Peralta, F. Ogliaro, M. Bearpark, J. J. Heyd, E. Brothers, 
 K. N. Kudin, V. N. Staroverov, T. Keith, R. Kobayashi, J. Normand, 
 K. Raghavachari, A. Rendell, J. C. Burant, S. S. Iyengar, J. Tomasi, 
 M. Cossi, N. Rega, J. M. Millam, M. Klene, J. E. Knox, J. B. Cross, 
 V. Bakken, C. Adamo, J. Jaramillo, R. Gomperts, R. E. Stratmann, 
 O. Yazyev, A. J. Austin, R. Cammi, C. Pomelli, J. W. Ochterski, 
 R. L. Martin, K. Morokuma, V. G. Zakrzewski, G. A. Voth, 
 P. Salvador, J. J. Dannenberg, S. Dapprich, A. D. Daniels, 
 O. Farkas, J. B. Foresman, J. V. Ortiz, J. Cioslowski, 
 and D. J. Fox, Gaussian, Inc., Wallingford CT, 2013.
 
 ******************************************
 Gaussian 09:  EM64L-G09RevD.01 24-Apr-2013
                17-Jun-2016 
 ******************************************
 %mem=2GB
 %nprocshared=1
 Will use up to    1 processors via shared memory.
 %chk=pescuh2o2.chk
 -------------------------------------------------------
 #opt=(modredundant,maxcycles=350) B3LYP/6-311G* scf=xqc
 -------------------------------------------------------
 1/6=350,14=-1,18=120,19=15,26=3,38=1/1,3;
 2/9=110,12=2,17=6,18=5,40=1/2;
 3/5=4,6=6,7=1,11=2,16=1,25=1,30=1,71=1,74=-5/1,2,3;
 4//1;
 5/5=2,8=3,13=1,38=5/2,8;
 6/7=2,8=2,9=2,10=2,28=1/1;
 7//1,2,3,16;
 1/6=350,14=-1,18=20,19=15,26=3/3(2);
 2/9=110/2;
 99//99;
 2/9=110/2;
 3/5=4,6=6,7=1,11=2,16=1,25=1,30=1,71=1,74=-5/1,2,3;
 4/5=5,16=3,69=1/1;
 5/5=2,8=3,13=1,38=5/2,8;
 7//1,2,3,16;
 1/6=350,14=-1,18=20,19=15,26=3/3(-5);
 2/9=110/2;
 6/7=2,8=2,9=2,10=2,19=2,28=1/1;
 99/9=1/99;
 ---------
 cu2(h20)2
 ---------
 Symbolic Z-matrix:
 Charge =  2 Multiplicity = 2
 Cu
 O                    1    A
 O                    1    B        2    H
 H                    3    C        1    D        2    E        0
 H                    3    C        1    D        2    F        0
 H                    2    C        1    D        3    G        0
 H                    2    C        1    D        6    E        0
       Variables:
  A                     3.8852                   
  B                     1.88506                  
  C                     0.95                     
  D                   109.471                    
  E                   180.                       
  F                     0.                       
  G                    90.                       
  H                   130.                       
 
     4 tetrahedral angles replaced.
 Add virtual bond connecting atoms O2         and Cu1        Dist= 7.34D+00.
 The following ModRedundant input section has been read:
 A       2       1       3 F                                                   
 B       1       2 S  25 -0.100                                                
 

 GradGradGradGradGradGradGradGradGradGradGradGradGradGradGradGradGradGrad
 Berny optimization.
 Initialization pass.
                           ----------------------------
                           !    Initial Parameters    !
                           ! (Angstroms and Degrees)  !
 --------------------------                            --------------------------
 ! Name  Definition              Value          Derivative Info.                !
 --------------------------------------------------------------------------------
 ! R1    R(1,2)                  3.8852         Scan                            !
 ! R2    R(1,3)                  1.8851         estimate D2E/DX2                !
 ! R3    R(2,6)                  0.95           estimate D2E/DX2                !
 ! R4    R(2,7)                  0.95           estimate D2E/DX2                !
 ! R5    R(3,4)                  0.95           estimate D2E/DX2                !
 ! R6    R(3,5)                  0.95           estimate D2E/DX2                !
 ! A1    A(2,1,3)              130.0            Frozen                          !
 ! A2    A(1,2,6)              109.4712         estimate D2E/DX2                !
 ! A3    A(1,2,7)              109.4712         estimate D2E/DX2                !
 ! A4    A(6,2,7)              141.0576         estimate D2E/DX2                !
 ! A5    A(1,3,4)              109.4712         estimate D2E/DX2                !
 ! A6    A(1,3,5)              109.4712         estimate D2E/DX2                !
 ! A7    A(4,3,5)              141.0576         estimate D2E/DX2                !
 ! D1    D(3,1,2,6)             90.0            estimate D2E/DX2                !
 ! D2    D(3,1,2,7)            -90.0            estimate D2E/DX2                !
 ! D3    D(2,1,3,4)            180.0            estimate D2E/DX2                !
 ! D4    D(2,1,3,5)              0.0            estimate D2E/DX2                !
 ! D5    D(1,2,6,7)            180.0            estimate D2E/DX2                !
 ! D6    D(1,3,4,5)            180.0            estimate D2E/DX2                !
 --------------------------------------------------------------------------------
 Trust Radius=3.00D-01 FncErr=1.00D-07 GrdErr=1.00D-06
 Number of optimizations in scan=  26
 Number of steps in this run=    100 maximum allowed number of steps=    100.
 GradGradGradGradGradGradGradGradGradGradGradGradGradGradGradGradGradGrad

                          Input orientation:                          
 ---------------------------------------------------------------------
 Center     Atomic      Atomic             Coordinates (Angstroms)
 Number     Number       Type             X           Y           Z
 ---------------------------------------------------------------------
      1         29           0        0.000000    0.000000    0.000000
      2          8           0        0.000000    0.000000    3.885203
      3          8           0        1.444041    0.000000   -1.211694
      4          1           0        1.110897    0.000000   -2.101365
      5          1           0        2.262346    0.000000   -0.729121
      6          1           0        0.000000    0.895669    4.201870
      7          1           0        0.000000   -0.895669    4.201870
 ---------------------------------------------------------------------
                    Distance matrix (angstroms):
                    1          2          3          4          5
     1  Cu   0.000000
     2  O    3.885203   0.000000
     3  O    1.885061   5.297510   0.000000
     4  H    2.376936   6.088768   0.950000   0.000000
     5  H    2.376936   5.139085   0.950000   1.791337   0.000000
     6  H    4.296269   0.950000   5.673988   6.462746   5.498646
     7  H    4.296269   0.950000   5.673988   6.462746   5.498646
                    6          7
     6  H    0.000000
     7  H    1.791337   0.000000
 Stoichiometry    CuH4O2(2+,2)
 Framework group  CS[SG(CuH2O2),X(H2)]
 Deg. of freedom    10
 Full point group                 CS      NOp   2
 Largest Abelian subgroup         CS      NOp   2
 Largest concise Abelian subgroup CS      NOp   2
                         Standard orientation:                         
 ---------------------------------------------------------------------
 Center     Atomic      Atomic             Coordinates (Angstroms)
 Number     Number       Type             X           Y           Z
 ---------------------------------------------------------------------
      1         29           0        0.000000    0.628918    0.000000
      2          8           0       -1.881718   -2.770191    0.000000
      3          8           0        1.850229    0.989620    0.000000
      4          1           0        1.989661    1.929332    0.000000
      5          1           0        2.332429    0.171095    0.000000
      6          1           0       -2.035089   -3.047238    0.895669
      7          1           0       -2.035089   -3.047238   -0.895669
 ---------------------------------------------------------------------
 Rotational constants (GHZ):     19.1328294      1.7347682      1.6069086
 Standard basis: 6-311G(d) (5D, 7F)
 There are    74 symmetry adapted cartesian basis functions of A'  symmetry.
 There are    28 symmetry adapted cartesian basis functions of A"  symmetry.
 There are    67 symmetry adapted basis functions of A'  symmetry.
 There are    27 symmetry adapted basis functions of A"  symmetry.
    94 basis functions,   165 primitive gaussians,   102 cartesian basis functions
    24 alpha electrons       23 beta electrons
       nuclear repulsion energy       144.9593300122 Hartrees.
 NAtoms=    7 NActive=    7 NUniq=    6 SFac= 1.36D+00 NAtFMM=   60 NAOKFM=F Big=F
 Integral buffers will be    131072 words long.
 Raffenetti 2 integral format.
 Two-electron integral symmetry is turned on.
 One-electron integrals computed using PRISM.
 NBasis=    94 RedAO= T EigKep=  1.33D-02  NBF=    67    27
 NBsUse=    94 1.00D-06 EigRej= -1.00D+00 NBFU=    67    27
 ExpMin= 4.08D-02 ExpMax= 3.37D+05 ExpMxC= 1.14D+04 IAcc=2 IRadAn=         4 AccDes= 0.00D+00
 Harris functional with IExCor=  402 and IRadAn=       4 diagonalized for initial guess.
 HarFok:  IExCor=  402 AccDes= 0.00D+00 IRadAn=         4 IDoV= 1 UseB2=F ITyADJ=14
 ICtDFT=  3500011 ScaDFX=  1.000000  1.000000  1.000000  1.000000
 FoFCou: FMM=F IPFlag=           0 FMFlag=      100000 FMFlg1=           0
         NFxFlg=           0 DoJE=T BraDBF=F KetDBF=T FulRan=T
         wScrn=  0.000000 ICntrl=     500 IOpCl=  0 I1Cent=   200000004 NGrid=           0
         NMat0=    1 NMatS0=      1 NMatT0=    0 NMatD0=    1 NMtDS0=    0 NMtDT0=    0
 Petite list used in FoFCou.
 Initial guess orbital symmetries:
 Alpha Orbitals:
       Occupied  (A') (A') (A') (A') (A") (A') (A') (A') (A') (A')
                 (A") (A') (A') (A') (A") (A') (A") (A') (A') (A')
                 (A') (A') (A") (A")
       Virtual   (A') (A') (A') (A') (A") (A') (A') (A') (A') (A")
                 (A") (A') (A') (A') (A') (A") (A') (A') (A") (A')
                 (A') (A") (A') (A") (A') (A') (A') (A') (A') (A")
                 (A") (A") (A") (A') (A') (A') (A') (A") (A') (A')
                 (A') (A') (A") (A') (A") (A') (A") (A') (A") (A')
                 (A') (A') (A") (A') (A") (A') (A") (A') (A') (A")
                 (A') (A') (A') (A") (A') (A') (A') (A') (A') (A')
 Beta  Orbitals:
       Occupied  (A') (A') (A') (A') (A") (A') (A') (A') (A') (A')
                 (A") (A') (A') (A') (A") (A') (A") (A') (A') (A')
                 (A') (A') (A")
       Virtual   (A") (A') (A') (A') (A') (A") (A') (A') (A') (A')
                 (A") (A") (A') (A') (A') (A') (A") (A') (A') (A")
                 (A') (A') (A") (A') (A") (A') (A') (A') (A') (A')
                 (A") (A") (A") (A") (A') (A') (A') (A') (A") (A')
                 (A') (A') (A') (A") (A') (A") (A') (A") (A') (A")
                 (A') (A') (A') (A") (A') (A") (A') (A") (A') (A')
                 (A") (A') (A') (A') (A") (A') (A') (A') (A') (A')
                 (A')
 The electronic state of the initial guess is 2-A".
 Initial guess <Sx>= 0.0000 <Sy>= 0.0000 <Sz>= 0.5000 <S**2>= 0.7500 S= 0.5000
 Keep R1 and R2 ints in memory in symmetry-blocked form, NReq=15545797.
 Requested convergence on RMS density matrix=1.00D-08 within  64 cycles.
 Requested convergence on MAX density matrix=1.00D-06.
 Requested convergence on             energy=1.00D-06.
 No special actions if energy rises.
 EnCoef did   100 forward-backward iterations
 EnCoef did   100 forward-backward iterations
 EnCoef did   100 forward-backward iterations
 EnCoef did   100 forward-backward iterations
 EnCoef did     8 forward-backward iterations
 EnCoef did    58 forward-backward iterations
 EnCoef did   100 forward-backward iterations
 EnCoef did   100 forward-backward iterations
 EnCoef did   100 forward-backward iterations
 EnCoef did   100 forward-backward iterations
 EnCoef did   100 forward-backward iterations
 Rare condition: small coef for last iteration:  0.150D-14
 EnCoef did   100 forward-backward iterations
 Rare condition: small coef for last iteration:  0.000D+00
 EnCoef did   100 forward-backward iterations
 EnCoef did   100 forward-backward iterations
 EnCoef did   100 forward-backward iterations
 EnCoef did   100 forward-backward iterations
 EnCoef did   100 forward-backward iterations
 EnCoef did   100 forward-backward iterations
 EnCoef did   100 forward-backward iterations
 EnCoef did   100 forward-backward iterations
 Rare condition: small coef for last iteration: -0.208D-15
 EnCoef did   100 forward-backward iterations
 EnCoef did   100 forward-backward iterations
 EnCoef did   100 forward-backward iterations
 EnCoef did   100 forward-backward iterations
 Rare condition: small coef for last iteration:  0.651D-15
 Rare condition: small coef for last iteration:  0.000D+00
 Rare condition: small coef for last iteration:  0.000D+00
 Rare condition: small coef for last iteration:  0.000D+00
 Rare condition: small coef for last iteration:  0.000D+00
 Rare condition: small coef for last iteration:  0.000D+00
 Rare condition: small coef for last iteration:  0.000D+00
 Rare condition: small coef for last iteration:  0.000D+00
 EnCoef did   100 forward-backward iterations
 Rare condition: small coef for last iteration:  0.000D+00
 Rare condition: small coef for last iteration:  0.000D+00
 Rare condition: small coef for last iteration:  0.000D+00
 Rare condition: small coef for last iteration:  0.000D+00
 Rare condition: small coef for last iteration:  0.000D+00
 Rare condition: small coef for last iteration:  0.000D+00
 Rare condition: small coef for last iteration:  0.000D+00
 EnCoef did   100 forward-backward iterations
 EnCoef did   100 forward-backward iterations
 >>>>>>>>>> Convergence criterion not met.
 SCF Done:  E(UB3LYP) =  -1792.21440804     A.U. after   65 cycles
            NFock= 64  Conv=0.13D-02     -V/T= 2.0027
 <Sx>= 0.0000 <Sy>= 0.0000 <Sz>= 0.5000 <S**2>= 0.7552 S= 0.5026
 <L.S>= 0.000000000000E+00
 Annihilation of the first spin contaminant:
 S**2 before annihilation     0.7552,   after     0.7500
 Keep R1 and R2 ints in memory in symmetry-blocked form, NReq=15602405.
 Gradient too large for Newton-Raphson -- use scaled steepest descent instead.
  Beta Gap=    -0.509 HL deriv= 4.04D-17 Rot set to   2.72D-01
     Minimum is close to point  3 DX= -6.80D-03 DF= -2.44D-05 DXR=  1.73D-02 DFR=  3.07D-04 which will be used.
 Gradient too large for Newton-Raphson -- use scaled steepest descent instead.
 Gradient too large for Newton-Raphson -- use scaled steepest descent instead.
 Gradient too large for Newton-Raphson -- use scaled steepest descent instead.
 Gradient too large for Newton-Raphson -- use scaled steepest descent instead.
 Gradient too large for Newton-Raphson -- use scaled steepest descent instead.
     Accept linear search using points  1 and  2.
 Gradient too large for Newton-Raphson -- use scaled steepest descent instead.
     Minimum is close to point  2 DX= -2.64D-03 DF= -5.18D-08 DXR=  6.64D-03 DFR=  4.41D-05 which will be used.
 Gradient too large for Newton-Raphson -- use scaled steepest descent instead.
 Gradient too large for Newton-Raphson -- use scaled steepest descent instead.
     Accept linear search using points  1 and  2.
 Gradient too large for Newton-Raphson -- use scaled steepest descent instead.
     Accept linear search using points  5 and  6.
 Gradient too large for Newton-Raphson -- use scaled steepest descent instead.
 Gradient too large for Newton-Raphson -- use scaled steepest descent instead.
 Gradient too large for Newton-Raphson -- use scaled steepest descent instead.
     Accept linear search using points  1 and  2.
 Gradient too large for Newton-Raphson -- use scaled steepest descent instead.
     Minimum is close to point  3 DX=  8.24D-03 DF= -1.35D-06 DXR=  2.67D-02 DFR=  7.15D-04 which will be used.
 Gradient too large for Newton-Raphson -- use scaled steepest descent instead.
     Accept linear search using points  1 and  2.
 Gradient too large for Newton-Raphson -- use scaled steepest descent instead.
     Accept linear search using points  4 and  5.
 Gradient too large for Newton-Raphson -- use scaled steepest descent instead.
 Gradient too large for Newton-Raphson -- use scaled steepest descent instead.
     Accept linear search using points  1 and  2.
 LinEq1:  Iter=  0 NonCon=     1 RMS=1.61D-03 Max=9.19D-02 NDo=     1
 AX will form     1 AO Fock derivatives at one time.
 LinEq1:  Iter=  1 NonCon=     1 RMS=2.52D-03 Max=8.34D-02 NDo=     1
 LinEq1:  Iter=  2 NonCon=     1 RMS=6.46D-04 Max=1.81D-02 NDo=     1
 LinEq1:  Iter=  3 NonCon=     1 RMS=4.87D-04 Max=1.31D-02 NDo=     1
 LinEq1:  Iter=  4 NonCon=     1 RMS=3.28D-04 Max=9.26D-03 NDo=     1
 LinEq1:  Iter=  5 NonCon=     1 RMS=3.85D-04 Max=8.66D-03 NDo=     1
 LinEq1:  Iter=  6 NonCon=     1 RMS=2.49D-04 Max=6.28D-03 NDo=     1
 LinEq1:  Iter=  7 NonCon=     1 RMS=1.11D-04 Max=3.57D-03 NDo=     1
 LinEq1:  Iter=  8 NonCon=     1 RMS=2.72D-05 Max=6.47D-04 NDo=     1
 LinEq1:  Iter=  9 NonCon=     1 RMS=1.06D-05 Max=3.27D-04 NDo=     1
 LinEq1:  Iter= 10 NonCon=     1 RMS=3.87D-06 Max=1.09D-04 NDo=     1
 LinEq1:  Iter= 11 NonCon=     1 RMS=9.62D-07 Max=1.76D-05 NDo=     1
 LinEq1:  Iter= 12 NonCon=     1 RMS=2.46D-07 Max=5.33D-06 NDo=     1
 LinEq1:  Iter= 13 NonCon=     1 RMS=7.39D-08 Max=2.08D-06 NDo=     1
 LinEq1:  Iter= 14 NonCon=     1 RMS=3.09D-08 Max=1.01D-06 NDo=     1
 LinEq1:  Iter= 15 NonCon=     1 RMS=1.02D-08 Max=1.95D-07 NDo=     1
 LinEq1:  Iter= 16 NonCon=     0 RMS=2.40D-09 Max=4.02D-08 NDo=     1
 Linear equations converged to 5.756D-09 5.756D-08 after    16 iterations.
     Accept linear search using points  1 and  2.
     Minimum is close to point  2 DX= -7.26D-03 DF= -2.28D-09 DXR=  7.31D-03 DFR=  5.37D-05 which will be used.
 LinEq1:  Iter=  0 NonCon=     1 RMS=1.36D-05 Max=7.57D-04 NDo=     1
 LinEq1:  Iter=  1 NonCon=     1 RMS=5.73D-05 Max=2.24D-03 NDo=     1
 LinEq1:  Iter=  2 NonCon=     1 RMS=3.94D-05 Max=1.39D-03 NDo=     1
 LinEq1:  Iter=  3 NonCon=     1 RMS=2.78D-05 Max=7.54D-04 NDo=     1
 LinEq1:  Iter=  4 NonCon=     1 RMS=1.61D-05 Max=3.95D-04 NDo=     1
 LinEq1:  Iter=  5 NonCon=     1 RMS=1.44D-05 Max=6.12D-04 NDo=     1
 LinEq1:  Iter=  6 NonCon=     1 RMS=6.17D-06 Max=1.34D-04 NDo=     1
 LinEq1:  Iter=  7 NonCon=     1 RMS=2.05D-06 Max=5.39D-05 NDo=     1
 LinEq1:  Iter=  8 NonCon=     1 RMS=8.24D-07 Max=3.43D-05 NDo=     1
 LinEq1:  Iter=  9 NonCon=     1 RMS=2.93D-07 Max=5.78D-06 NDo=     1
 LinEq1:  Iter= 10 NonCon=     1 RMS=5.84D-08 Max=1.25D-06 NDo=     1
 LinEq1:  Iter= 11 NonCon=     1 RMS=2.15D-08 Max=7.43D-07 NDo=     1
 LinEq1:  Iter= 12 NonCon=     1 RMS=1.00D-08 Max=2.68D-07 NDo=     1
 LinEq1:  Iter= 13 NonCon=     1 RMS=2.52D-09 Max=3.90D-08 NDo=     1
 LinEq1:  Iter= 14 NonCon=     1 RMS=4.72D-10 Max=1.00D-08 NDo=     1
 LinEq1:  Iter= 15 NonCon=     0 RMS=1.13D-10 Max=2.24D-09 NDo=     1
 Linear equations converged to 8.518D-10 8.518D-09 after    15 iterations.
 LinEq1:  Iter=  0 NonCon=     1 RMS=2.80D-07 Max=1.61D-05 NDo=     1
 LinEq1:  Iter=  1 NonCon=     1 RMS=1.29D-07 Max=3.94D-06 NDo=     1
 LinEq1:  Iter=  2 NonCon=     1 RMS=1.57D-07 Max=6.17D-06 NDo=     1
 LinEq1:  Iter=  3 NonCon=     1 RMS=8.87D-08 Max=1.71D-06 NDo=     1
 LinEq1:  Iter=  4 NonCon=     1 RMS=3.51D-08 Max=7.89D-07 NDo=     1
 LinEq1:  Iter=  5 NonCon=     1 RMS=3.61D-08 Max=8.17D-07 NDo=     1
 LinEq1:  Iter=  6 NonCon=     1 RMS=3.23D-08 Max=8.65D-07 NDo=     1
 LinEq1:  Iter=  7 NonCon=     1 RMS=1.05D-08 Max=1.66D-07 NDo=     1
 LinEq1:  Iter=  8 NonCon=     1 RMS=3.09D-09 Max=5.88D-08 NDo=     1
 LinEq1:  Iter=  9 NonCon=     1 RMS=8.28D-10 Max=1.64D-08 NDo=     1
 LinEq1:  Iter= 10 NonCon=     1 RMS=3.29D-10 Max=1.32D-08 NDo=     1
 LinEq1:  Iter= 11 NonCon=     1 RMS=1.33D-10 Max=3.51D-09 NDo=     1
 LinEq1:  Iter= 12 NonCon=     1 RMS=3.37D-11 Max=4.88D-10 NDo=     1
 LinEq1:  Iter= 13 NonCon=     1 RMS=9.39D-12 Max=2.12D-10 NDo=     1
 LinEq1:  Iter= 14 NonCon=     0 RMS=2.79D-12 Max=5.62D-11 NDo=     1
 Linear equations converged to 1.228D-11 1.228D-10 after    14 iterations.
 Density matrix breaks symmetry, PCut= 1.00D-04
 Density matrix has no symmetry -- integrals replicated.
 Density matrix is not symmetric, so final MOs not symmetrized.
 SCF Done:  E(UB3LYP) =  -1792.49431874     a.u. after   22 cycles
            Convg  =    0.2931D-08                   104 Fock formations.
              S**2 =  0.7524                  -V/T =  2.0006
 <Sx>= 0.0000 <Sy>= 0.0000 <Sz>= 0.5000 <S**2>= 0.7524 S= 0.5012
 <L.S>= 0.000000000000E+00
 Annihilation of the first spin contaminant:
 S**2 before annihilation     0.7524,   after     0.7500

 **********************************************************************

            Population analysis using the SCF density.

 **********************************************************************

 Orbital symmetries:
 Alpha Orbitals:
       Occupied  (A') (A') (?A) (?A) (A') (A') (A') (A') (?A) (?A)
                 (A') (A') (A') (A') (A") (A') (A") (A') (A') (A")
                 (A") (A") (A") (A')
       Virtual   (A') (A') (A') (A') (A") (A') (A') (A') (A') (A")
                 (A') (A") (A') (A') (A') (A") (A') (A') (A") (A')
                 (?A) (?A) (?A) (?A) (A') (A') (A') (A') (A') (A")
                 (A") (A") (A') (A') (A") (A') (A') (A") (A') (A')
                 (A') (?B) (?B) (?B) (?B) (?B) (A') (A') (A') (A")
                 (A') (A') (A") (A') (A") (?A) (?A) (A') (A') (A")
                 (A') (A') (A') (A") (A') (A') (A') (A') (A') (A')
 Beta  Orbitals:
       Occupied  (A') (A') (?A) (?A) (A') (A') (A') (A') (?A) (?A)
                 (A') (A') (A') (A') (A") (A') (A") (A') (A") (A")
                 (A") (A") (A")
       Virtual   (A") (A') (A') (A') (A') (A") (A') (A') (A') (A')
                 (A") (A') (A") (A') (A') (A') (A") (A') (A') (A")
                 (A') (?A) (?A) (A') (A") (A') (A') (A') (A') (A')
                 (A") (A") (A") (A") (A') (A') (A') (A') (A") (A')
                 (A') (A') (?A) (?A) (?A) (?A) (?A) (?A) (A') (A")
                 (A') (A') (A') (A") (A') (?A) (?A) (A") (A') (A')
                 (A") (A') (A') (A') (A") (A') (A') (A') (A') (A')
                 (A')
 Unable to determine electronic state:  an orbital has unidentified symmetry.
 Alpha  occ. eigenvalues -- -323.44241 -39.23670 -34.46352 -34.46246 -34.44731
 Alpha  occ. eigenvalues --  -19.57020 -19.56595  -4.77245  -3.28100  -3.27886
 Alpha  occ. eigenvalues --   -3.24799  -1.45529  -1.44747  -1.03320  -1.01497
 Alpha  occ. eigenvalues --   -0.86182  -0.80103  -0.77956  -0.76708  -0.74991
 Alpha  occ. eigenvalues --   -0.74938  -0.74856  -0.74090  -0.72485
 Alpha virt. eigenvalues --   -0.49869  -0.31830  -0.30785  -0.23709  -0.21032
 Alpha virt. eigenvalues --   -0.18554  -0.04326  -0.02548   0.04782   0.11924
 Alpha virt. eigenvalues --    0.28749   0.30819   0.33860   0.37000   0.43698
 Alpha virt. eigenvalues --    0.52564   0.68657   0.74203   0.83077   0.86842
 Alpha virt. eigenvalues --    0.99376   0.99389   1.01300   1.01928   1.21990
 Alpha virt. eigenvalues --    1.28254   1.54199   1.56075   1.72666   1.73328
 Alpha virt. eigenvalues --    2.27288   2.28397   2.35229   2.35384   2.37437
 Alpha virt. eigenvalues --    2.53401   2.69777   2.72890   2.72979   3.03215
 Alpha virt. eigenvalues --    3.04189   3.48530   3.48628   3.48827   3.50175
 Alpha virt. eigenvalues --    3.50191   3.51327   3.51757   4.26495   4.29582
 Alpha virt. eigenvalues --    4.34874   4.44410   4.64333   4.67227   6.71052
 Alpha virt. eigenvalues --    6.71122   6.71442   6.78201   6.83777   8.79398
 Alpha virt. eigenvalues --    8.87403   9.10544  31.49661  42.25672  42.31480
 Alpha virt. eigenvalues --   42.46803  49.26158  49.29511 183.56373 978.81927
  Beta  occ. eigenvalues -- -323.44241 -39.22577 -34.45169 -34.45046 -34.44456
  Beta  occ. eigenvalues --  -19.56416 -19.55580  -4.74996  -3.24873  -3.24681
  Beta  occ. eigenvalues --   -3.24062  -1.45123  -1.41075  -1.03203  -1.00495
  Beta  occ. eigenvalues --   -0.85892  -0.76250  -0.75162  -0.74017  -0.73808
  Beta  occ. eigenvalues --   -0.73714  -0.71525  -0.65796
  Beta virt. eigenvalues --   -0.63191  -0.49603  -0.31730  -0.30282  -0.23672
  Beta virt. eigenvalues --   -0.20766  -0.18431  -0.04255  -0.02216   0.04808
  Beta virt. eigenvalues --    0.12073   0.29052   0.31458   0.37772   0.38345
  Beta virt. eigenvalues --    0.43808   0.53273   0.68954   0.76120   0.84347
  Beta virt. eigenvalues --    0.87112   0.99748   0.99844   1.01856   1.04680
  Beta virt. eigenvalues --    1.22340   1.28999   1.54515   1.56184   1.72653
  Beta virt. eigenvalues --    1.73210   2.28936   2.32039   2.38007   2.39653
  Beta virt. eigenvalues --    2.39916   2.54004   2.69869   2.73656   2.74120
  Beta virt. eigenvalues --    3.04241   3.05508   3.50357   3.50536   3.50709
  Beta virt. eigenvalues --    3.50780   3.51332   3.51890   3.52248   4.30316
  Beta virt. eigenvalues --    4.32876   4.36126   4.44596   4.65616   4.67378
  Beta virt. eigenvalues --    6.71972   6.72023   6.75840   6.79115   6.84559
  Beta virt. eigenvalues --    8.81356   8.87911   9.12488  31.51117  42.27208
  Beta virt. eigenvalues --   42.31905  42.48347  49.27611  49.29689 183.56921
  Beta virt. eigenvalues --  978.82035
          Condensed to atoms (all electrons):
               1          2          3          4          5          6
     1  Cu  27.657694   0.005057   0.113021  -0.005556  -0.005371  -0.000292
     2  O    0.005057   8.050269   0.000000  -0.000002  -0.000018   0.249599
     3  O    0.113021   0.000000   8.326033   0.243575   0.244634   0.000001
     4  H   -0.005556  -0.000002   0.243575   0.194191  -0.008887   0.000000
     5  H   -0.005371  -0.000018   0.244634  -0.008887   0.200511   0.000000
     6  H   -0.000292   0.249599   0.000001   0.000000   0.000000   0.211621
     7  H   -0.000292   0.249599   0.000001   0.000000   0.000000  -0.011038
               7
     1  Cu  -0.000292
     2  O    0.249599
     3  O    0.000001
     4  H    0.000000
     5  H    0.000000
     6  H   -0.011038
     7  H    0.211620
          Atomic-Atomic Spin Densities.
               1          2          3          4          5          6
     1  Cu   0.412600  -0.000328  -0.007359   0.000057   0.000031   0.000021
     2  O   -0.000328   0.585541   0.000000   0.000000   0.000001  -0.006660
     3  O   -0.007359   0.000000   0.067299  -0.000485  -0.000469   0.000000
     4  H    0.000057   0.000000  -0.000485  -0.001539   0.000017   0.000000
     5  H    0.000031   0.000001  -0.000469   0.000017  -0.001564   0.000000
     6  H    0.000021  -0.006660   0.000000   0.000000   0.000000  -0.009960
     7  H    0.000020  -0.006661   0.000000   0.000000   0.000000   0.000606
               7
     1  Cu   0.000020
     2  O   -0.006661
     3  O    0.000000
     4  H    0.000000
     5  H    0.000000
     6  H    0.000606
     7  H   -0.009958
 Mulliken charges and spin densities:
               1          2
     1  Cu   1.235740   0.405041
     2  O   -0.554503   0.571893
     3  O   -0.927264   0.058986
     4  H    0.576679  -0.001950
     5  H    0.569131  -0.001984
     6  H    0.550109  -0.015994
     7  H    0.550109  -0.015993
 Sum of Mulliken charges =   2.00000   1.00000
 Mulliken charges and spin densities with hydrogens summed into heavy atoms:
               1          2
     1  Cu   1.235740   0.405041
     2  O    0.545715   0.539906
     3  O    0.218545   0.055052
 Electronic spatial extent (au):  <R**2>=            632.1819
 Charge=              2.0000 electrons
 Dipole moment (field-independent basis, Debye):
    X=             -2.0854    Y=             -3.6752    Z=             -0.0001  Tot=              4.2256
 Quadrupole moment (field-independent basis, Debye-Ang):
   XX=              4.3411   YY=             16.9880   ZZ=            -16.5678
   XY=             23.1556   XZ=             -0.0011   YZ=              0.0010
 Traceless Quadrupole moment (field-independent basis, Debye-Ang):
   XX=              2.7540   YY=             15.4009   ZZ=            -18.1549
   XY=             23.1556   XZ=             -0.0011   YZ=              0.0010
 Octapole moment (field-independent basis, Debye-Ang**2):
  XXX=              1.2476  YYY=            -61.3365  ZZZ=             -0.0007  XYY=            -49.3127
  XXY=            -26.0413  XXZ=              0.0030  XZZ=            -10.8815  YZZ=             -9.2054
  YYZ=             -0.0022  XYZ=              0.0016
 Hexadecapole moment (field-independent basis, Debye-Ang**3):
 XXXX=           -137.9979 YYYY=            -16.5358 ZZZZ=            -11.2174 XXXY=            -20.4259
 XXXZ=             -0.0122 YYYX=            100.0712 YYYZ=              0.0131 ZZZX=             -0.0022
 ZZZY=              0.0007 XXYY=             54.9084 XXZZ=            -30.9370 YYZZ=            -19.5236
 XXYZ=             -0.0068 YYXZ=             -0.0022 ZZXY=            -16.1573
 N-N= 1.449593300122D+02 E-N=-4.555612299647D+03  KE= 1.791499854952D+03
 Symmetry A'   KE= 1.565847608599D+03
 Symmetry A"   KE= 2.256522463531D+02
                          Isotropic Fermi Contact Couplings
        Atom                 a.u.       MegaHertz       Gauss      10(-4) cm-1
     1  Cu(63)            -0.13604    -161.36222     -57.57805     -53.82464
     2  O(17)              0.06308     -38.23737     -13.64404     -12.75461
     3  O(17)              0.01098      -6.65749      -2.37556      -2.22070
     4  H(1)              -0.00108      -4.82466      -1.72156      -1.60933
     5  H(1)              -0.00108      -4.83328      -1.72464      -1.61221
     6  H(1)              -0.00864     -38.61214     -13.77777     -12.87962
     7  H(1)              -0.00864     -38.61236     -13.77785     -12.87970
 --------------------------------------------------------
       Center         ----  Spin Dipole Couplings  ----
                      3XX-RR        3YY-RR        3ZZ-RR
 --------------------------------------------------------
     1   Atom        0.864646     -1.791931      0.927284
     2   Atom        1.447035     -0.329209     -1.117826
     3   Atom       -0.120796     -0.148130      0.268927
     4   Atom       -0.003566      0.012038     -0.008473
     5   Atom        0.005237      0.003481     -0.008718
     6   Atom       -0.034373     -0.047279      0.081651
     7   Atom       -0.034407     -0.047245      0.081651
 --------------------------------------------------------
                        XY            XZ            YZ
 --------------------------------------------------------
     1   Atom        0.525906      0.002173      0.008030
     2   Atom       -1.427232      0.001882     -0.001046
     3   Atom        0.006335      0.003254      0.000480
     4   Atom        0.009305      0.000035     -0.000018
     5   Atom       -0.010853      0.000023      0.000036
     6   Atom       -0.010388     -0.025677     -0.046241
     7   Atom       -0.010410      0.025536      0.046320
 --------------------------------------------------------


 ---------------------------------------------------------------------------------
              Anisotropic Spin Dipole Couplings in Principal Axis System
 ---------------------------------------------------------------------------------

       Atom             a.u.   MegaHertz   Gauss  10(-4) cm-1        Axes

              Baa    -1.8923  -267.911   -95.597   -89.366 -0.1874  0.9823 -0.0027
     1 Cu(63) Bbb     0.9270   131.240    46.830    43.777 -0.0941 -0.0153  0.9954
              Bcc     0.9653   136.671    48.768    45.589  0.9778  0.1868  0.0953
 
              Baa    -1.1221    81.193    28.972    27.083  0.4856  0.8742  0.0001
     2 O(17)  Bbb    -1.1178    80.885    28.862    26.980 -0.0006  0.0003  1.0000
              Bcc     2.2399  -162.078   -57.834   -54.064  0.8742 -0.4856  0.0006
 
              Baa    -0.1495    10.820     3.861     3.609 -0.2154  0.9765  0.0006
     3 O(17)  Bbb    -0.1194     8.642     3.084     2.883  0.9765  0.2154 -0.0084
              Bcc     0.2690   -19.461    -6.944    -6.492  0.0084  0.0013  1.0000
 
              Baa    -0.0085    -4.522    -1.614    -1.508 -0.0624  0.0292  0.9976
     4 H(1)   Bbb    -0.0079    -4.217    -1.505    -1.407  0.9041 -0.4218  0.0688
              Bcc     0.0164     8.739     3.118     2.915  0.4228  0.9062 -0.0001
 
              Baa    -0.0087    -4.652    -1.660    -1.552 -0.0129 -0.0144  0.9998
     5 H(1)   Bbb    -0.0065    -3.483    -1.243    -1.162  0.6779  0.7349  0.0193
              Bcc     0.0152     8.135     2.903     2.714  0.7351 -0.6780 -0.0003
 
              Baa    -0.0713   -38.064   -13.582   -12.697  0.4591  0.8261  0.3267
     6 H(1)   Bbb    -0.0286   -15.258    -5.444    -5.089  0.8741 -0.4857 -0.0001
              Bcc     0.0999    53.322    19.026    17.786 -0.1586 -0.2857  0.9451
 
              Baa    -0.0713   -38.064   -13.582   -12.697  0.4588  0.8263 -0.3267
     7 H(1)   Bbb    -0.0286   -15.258    -5.444    -5.089  0.8745 -0.4851  0.0012
              Bcc     0.0999    53.322    19.027    17.786  0.1575  0.2863  0.9451
 

 ---------------------------------------------------------------------------------

 Density matrix is not symmetric, so symmetry will not be used here.
 Density matrix is not symmetric, so symmetry will not be used here.
 Calling FoFJK, ICntrl=      2127 FMM=F ISym2X=0 I1Cent= 0 IOpClX= 1 NMat=1 NMatS=1 NMatT=0.
 ***** Axes restored to original set *****
 -------------------------------------------------------------------
 Center     Atomic                   Forces (Hartrees/Bohr)
 Number     Number              X              Y              Z
 -------------------------------------------------------------------
      1       29          -0.007548182    0.000035874    0.001266444
      2        8           0.000244253   -0.000011482   -0.072963741
      3        8          -0.061538975    0.000002180    0.054489351
      4        1           0.035093804   -0.000018421   -0.029637569
      5        1           0.034284563   -0.000008381   -0.031368278
      6        1          -0.000288496    0.007950878    0.039106456
      7        1          -0.000246967   -0.007950648    0.039107336
 -------------------------------------------------------------------
 Cartesian Forces:  Max     0.072963741 RMS     0.030545139

 GradGradGradGradGradGradGradGradGradGradGradGradGradGradGradGradGradGrad
 Berny optimization.
 FormGI is forming the generalized inverse of G from B-inverse, IUseBI=4.
 Internal  Forces:  Max     0.052469263 RMS     0.020584475
 Search for a local minimum.
 Step number   1 out of a maximum of  100 on scan point     1 out of    26
 All quantities printed in internal units (Hartrees-Bohrs-Radians)
 Mixed Optimization -- RFO/linear search
 Second derivative matrix not updated -- first step.
 The second derivative matrix:
                          R1        R2        R3        R4        R5
           R1           0.00858
           R2           0.00000   0.19001
           R3           0.00000   0.00000   0.57681
           R4           0.00000   0.00000   0.00000   0.57681
           R5           0.00000   0.00000   0.00000   0.00000   0.57681
           R6           0.00000   0.00000   0.00000   0.00000   0.00000
           A1           0.00000   0.00000   0.00000   0.00000   0.00000
           A2           0.00000   0.00000   0.00000   0.00000   0.00000
           A3           0.00000   0.00000   0.00000   0.00000   0.00000
           A4           0.00000   0.00000   0.00000   0.00000   0.00000
           A5           0.00000   0.00000   0.00000   0.00000   0.00000
           A6           0.00000   0.00000   0.00000   0.00000   0.00000
           A7           0.00000   0.00000   0.00000   0.00000   0.00000
           D1           0.00000   0.00000   0.00000   0.00000   0.00000
           D2           0.00000   0.00000   0.00000   0.00000   0.00000
           D3           0.00000   0.00000   0.00000   0.00000   0.00000
           D4           0.00000   0.00000   0.00000   0.00000   0.00000
           D5           0.00000   0.00000   0.00000   0.00000   0.00000
           D6           0.00000   0.00000   0.00000   0.00000   0.00000
                          R6        A1        A2        A3        A4
           R6           0.57681
           A1           0.00000   0.25000
           A2           0.00000   0.00000   0.16000
           A3           0.00000   0.00000   0.00000   0.16000
           A4           0.00000   0.00000   0.00000   0.00000   0.16000
           A5           0.00000   0.00000   0.00000   0.00000   0.00000
           A6           0.00000   0.00000   0.00000   0.00000   0.00000
           A7           0.00000   0.00000   0.00000   0.00000   0.00000
           D1           0.00000   0.00000   0.00000   0.00000   0.00000
           D2           0.00000   0.00000   0.00000   0.00000   0.00000
           D3           0.00000   0.00000   0.00000   0.00000   0.00000
           D4           0.00000   0.00000   0.00000   0.00000   0.00000
           D5           0.00000   0.00000   0.00000   0.00000   0.00000
           D6           0.00000   0.00000   0.00000   0.00000   0.00000
                          A5        A6        A7        D1        D2
           A5           0.16000
           A6           0.00000   0.16000
           A7           0.00000   0.00000   0.16000
           D1           0.00000   0.00000   0.00000   0.00230
           D2           0.00000   0.00000   0.00000   0.00000   0.00230
           D3           0.00000   0.00000   0.00000   0.00000   0.00000
           D4           0.00000   0.00000   0.00000   0.00000   0.00000
           D5           0.00000   0.00000   0.00000   0.00000   0.00000
           D6           0.00000   0.00000   0.00000   0.00000   0.00000
                          D3        D4        D5        D6
           D3           0.03612
           D4           0.00000   0.03612
           D5           0.00000   0.00000   0.01690
           D6           0.00000   0.00000   0.00000   0.01690
 ITU=  0
     Eigenvalues ---    0.00230   0.01424   0.02039   0.03612   0.16000
     Eigenvalues ---    0.16000   0.16000   0.16000   0.19001   0.57681
     Eigenvalues ---    0.57681   0.57681   0.576811000.000001000.00000
     Eigenvalues --- 1000.000001000.000001000.000001000.00000
 RFO step:  Lambda=-3.63789692D-02 EMin= 2.30000000D-03
 Linear search not attempted -- first point.
 Maximum step size (   0.300) exceeded in Quadratic search.
    -- Step size scaled by   0.712
 Iteration  1 RMS(Cart)=  0.07343764 RMS(Int)=  0.00321787
 Iteration  2 RMS(Cart)=  0.00319976 RMS(Int)=  0.00006381
 Iteration  3 RMS(Cart)=  0.00000330 RMS(Int)=  0.00006372
 Iteration  4 RMS(Cart)=  0.00000000 RMS(Int)=  0.00006372
 Iteration  1 RMS(Cart)=  0.00000000 RMS(Int)=  0.00000000
 Variable       Old X    -DE/DX   Delta X   Delta X   Delta X     New X
                                 (Linear)    (Quad)   (Total)
    R1        7.34197   0.00526   0.00000   0.00000   0.00000   7.34197
    R2        3.56225   0.01017   0.00000   0.03197   0.03197   3.59422
    R3        1.79524   0.02053   0.00000   0.02382   0.02382   1.81906
    R4        1.79524   0.02053   0.00000   0.02382   0.02382   1.81906
    R5        1.79524   0.01546   0.00000   0.01794   0.01794   1.81317
    R6        1.79524   0.01358   0.00000   0.01576   0.01576   1.81100
    A1        2.26893   0.00211   0.00000   0.00000   0.00000   2.26893
    A2        1.91063   0.02048   0.00000   0.07420   0.07420   1.98483
    A3        1.91063   0.02048   0.00000   0.07420   0.07420   1.98483
    A4        2.46192  -0.04096   0.00000  -0.14840  -0.14840   2.31352
    A5        1.91063   0.02516   0.00000   0.09117   0.09117   2.00180
    A6        1.91063   0.02731   0.00000   0.09893   0.09893   2.00957
    A7        2.46192  -0.05247   0.00000  -0.19010  -0.19010   2.27182
    D1        1.57080   0.00011   0.00000   0.00173   0.00190   1.57270
    D2       -1.57080  -0.00004   0.00000  -0.00045  -0.00062  -1.57142
    D3        3.14159  -0.00001   0.00000  -0.00013  -0.00014   3.14145
    D4        0.00000   0.00000   0.00000  -0.00003  -0.00002  -0.00002
    D5        3.14159  -0.00023   0.00000  -0.00327  -0.00313   3.13846
    D6        3.14159   0.00001   0.00000   0.00016   0.00015  -3.14144
         Item               Value     Threshold  Converged?
 Maximum Force            0.052469     0.000450     NO 
 RMS     Force            0.021718     0.000300     NO 
 Maximum Displacement     0.180529     0.001800     NO 
 RMS     Displacement     0.073868     0.001200     NO 
 Predicted change in Energy=-1.831284D-02
 GradGradGradGradGradGradGradGradGradGradGradGradGradGradGradGradGradGrad

                          Input orientation:                          
 ---------------------------------------------------------------------
 Center     Atomic      Atomic             Coordinates (Angstroms)
 Number     Number       Type             X           Y           Z
 ---------------------------------------------------------------------
      1         29           0       -0.028319    0.000288    0.003630
      2          8           0       -0.013937    0.000011    3.888806
      3          8           0        1.424146   -0.000011   -1.224324
      4          1           0        1.167453   -0.000003   -2.148841
      5          1           0        2.295169   -0.000254   -0.824653
      6          1           0       -0.013946    0.881255    4.276134
      7          1           0       -0.013284   -0.881287    4.276010
 ---------------------------------------------------------------------
                    Distance matrix (angstroms):
                    1          2          3          4          5
     1  Cu   0.000000
     2  O    3.885203   0.000000
     3  O    1.901980   5.311515   0.000000
     4  H    2.462317   6.152144   0.959491   0.000000
     5  H    2.466709   5.248683   0.958341   1.739315   0.000000
     6  H    4.362407   0.962608   5.753241   6.591860   5.668077
     7  H    4.362412   0.962608   5.752959   6.591625   5.667622
                    6          7
     6  H    0.000000
     7  H    1.762542   0.000000
 Stoichiometry    CuH4O2(2+,2)
 Framework group  C1[X(CuH4O2)]
 Deg. of freedom    15
 Full point group                 C1      NOp   1
 Omega: Change in point group or standard orientation.

 Old FWG=CS   [SG(Cu1H2O2),X(H2)]
 New FWG=C01  [X(Cu1H4O2)]
 Largest Abelian subgroup         C1      NOp   1
 Largest concise Abelian subgroup C1      NOp   1
                         Standard orientation:                         
 ---------------------------------------------------------------------
 Center     Atomic      Atomic             Coordinates (Angstroms)
 Number     Number       Type             X           Y           Z
 ---------------------------------------------------------------------
      1         29           0        0.482653    0.404924   -0.000029
      2          8           0       -3.337093   -0.305245    0.000016
      3          8           0        1.950947   -0.804059    0.000072
      4          1           0        2.814522   -0.385894   -0.000084
      5          1           0        1.713783   -1.732591    0.000162
      6          1           0       -3.718140   -0.374314    0.881292
      7          1           0       -3.717933   -0.375566   -0.881250
 ---------------------------------------------------------------------
 Rotational constants (GHZ):     18.7722305      1.7203309      1.5914479
 Standard basis: 6-311G(d) (5D, 7F)
 There are   102 symmetry adapted cartesian basis functions of A   symmetry.
 There are    94 symmetry adapted basis functions of A   symmetry.
    94 basis functions,   165 primitive gaussians,   102 cartesian basis functions
    24 alpha electrons       23 beta electrons
       nuclear repulsion energy       143.5562100825 Hartrees.
 NAtoms=    7 NActive=    7 NUniq=    7 SFac= 1.00D+00 NAtFMM=   60 NAOKFM=F Big=F
 Integral buffers will be    131072 words long.
 Raffenetti 2 integral format.
 Two-electron integral symmetry is turned on.
 One-electron integrals computed using PRISM.
 NBasis=    94 RedAO= T EigKep=  9.37D-03  NBF=    94
 NBsUse=    94 1.00D-06 EigRej= -1.00D+00 NBFU=    94
 Initial guess from the checkpoint file:  "pescuh2o2.chk"
 B after Tr=     0.000000    0.000000    0.000000
         Rot=    0.904263    0.000064    0.000032    0.426975 Ang=  50.55 deg.
 Initial guess <Sx>= 0.0000 <Sy>= 0.0000 <Sz>= 0.5000 <S**2>= 0.7524 S= 0.5012
 ExpMin= 4.08D-02 ExpMax= 3.37D+05 ExpMxC= 1.14D+04 IAcc=2 IRadAn=         4 AccDes= 0.00D+00
 Harris functional with IExCor=  402 and IRadAn=       4 diagonalized for initial guess.
 HarFok:  IExCor=  402 AccDes= 0.00D+00 IRadAn=         4 IDoV= 1 UseB2=F ITyADJ=14
 ICtDFT=  3500011 ScaDFX=  1.000000  1.000000  1.000000  1.000000
 FoFCou: FMM=F IPFlag=           0 FMFlag=      100000 FMFlg1=           0
         NFxFlg=           0 DoJE=T BraDBF=F KetDBF=T FulRan=T
         wScrn=  0.000000 ICntrl=     500 IOpCl=  0 I1Cent=   200000004 NGrid=           0
         NMat0=    1 NMatS0=      1 NMatT0=    0 NMatD0=    1 NMtDS0=    0 NMtDT0=    0
 Petite list used in FoFCou.
 Keep R1 and R2 ints in memory in canonical form, NReq=21961085.
 Requested convergence on RMS density matrix=1.00D-08 within  64 cycles.
 Requested convergence on MAX density matrix=1.00D-06.
 Requested convergence on             energy=1.00D-06.
 No special actions if energy rises.
 EnCoef did     8 forward-backward iterations
 EnCoef did     2 forward-backward iterations
 EnCoef did   100 forward-backward iterations
 SCF Done:  E(UB3LYP) =  -1792.51744842     A.U. after   20 cycles
            NFock= 20  Conv=0.72D-08     -V/T= 2.0006
 <Sx>= 0.0000 <Sy>= 0.0000 <Sz>= 0.5000 <S**2>= 0.7523 S= 0.5012
 <L.S>= 0.000000000000E+00
 Annihilation of the first spin contaminant:
 S**2 before annihilation     0.7523,   after     0.7500
 QCSCF skips out because SCF is already converged.
 Calling FoFJK, ICntrl=      2127 FMM=F ISym2X=0 I1Cent= 0 IOpClX= 1 NMat=1 NMatS=1 NMatT=0.
 ***** Axes restored to original set *****
 -------------------------------------------------------------------
 Center     Atomic                   Forces (Hartrees/Bohr)
 Number     Number              X              Y              Z
 -------------------------------------------------------------------
      1       29          -0.001974394    0.000035805   -0.003107291
      2        8           0.000090932   -0.000007575   -0.057770786
      3        8          -0.046098246    0.000024097    0.040251087
      4        1           0.028874057   -0.000030840   -0.014954587
      5        1           0.019457249   -0.000017293   -0.027012168
      6        1          -0.000194475   -0.003545872    0.031296334
      7        1          -0.000155123    0.003541679    0.031297412
 -------------------------------------------------------------------
 Cartesian Forces:  Max     0.057770786 RMS     0.023141374

 GradGradGradGradGradGradGradGradGradGradGradGradGradGradGradGradGradGrad
 Berny optimization.
 Using GEDIIS/GDIIS optimizer.
 FormGI is forming the generalized inverse of G from B-inverse, IUseBI=4.
 Internal  Forces:  Max     0.038932899 RMS     0.015501135
 Search for a local minimum.
 Step number   2 out of a maximum of  100 on scan point     1 out of    26
 All quantities printed in internal units (Hartrees-Bohrs-Radians)
 Mixed Optimization -- RFO/linear search
 Update second derivatives using D2CorX and points    1    2
 DE= -2.31D-02 DEPred=-1.83D-02 R= 1.26D+00
 TightC=F SS=  1.41D+00  RLast= 3.00D-01 DXNew= 5.0454D-01 9.0007D-01
 Trust test= 1.26D+00 RLast= 3.00D-01 DXMaxT set to 5.05D-01
 The second derivative matrix:
                          R1        R2        R3        R4        R5
           R1           0.00860
           R2           0.00052   0.19689
           R3           0.00078   0.00854   0.58554
           R4           0.00078   0.00854   0.00873   0.58554
           R5           0.00061   0.00685   0.00721   0.00721   0.58274
           R6           0.00050   0.00540   0.00539   0.00539   0.00447
           A1           0.00005   0.00087   0.00132   0.00132   0.00103
           A2           0.00016  -0.00195  -0.00653  -0.00653  -0.00479
           A3           0.00016  -0.00195  -0.00653  -0.00653  -0.00479
           A4          -0.00031   0.00390   0.01307   0.01307   0.00958
           A5           0.00045   0.00228  -0.00097  -0.00097  -0.00036
           A6           0.00049   0.00253  -0.00097  -0.00097  -0.00033
           A7          -0.00094  -0.00481   0.00194   0.00194   0.00069
           D1           0.00000  -0.00005  -0.00008  -0.00008  -0.00006
           D2           0.00000   0.00005   0.00008   0.00008   0.00006
           D3           0.00000   0.00001   0.00002   0.00002   0.00001
           D4           0.00000   0.00000  -0.00001  -0.00001  -0.00001
           D5           0.00000  -0.00007  -0.00009  -0.00009  -0.00007
           D6           0.00000   0.00000  -0.00001  -0.00001  -0.00001
                          R6        A1        A2        A3        A4
           R6           0.58014
           A1           0.00085   0.25008
           A2          -0.00440   0.00026   0.15154
           A3          -0.00440   0.00026  -0.00846   0.15154
           A4           0.00880  -0.00053   0.01692   0.01692   0.12616
           A5          -0.00086   0.00076  -0.00898  -0.00898   0.01797
           A6          -0.00088   0.00083  -0.00973  -0.00973   0.01946
           A7           0.00175  -0.00160   0.01871   0.01872  -0.03743
           D1          -0.00005   0.00000  -0.00002  -0.00002   0.00004
           D2           0.00005   0.00000   0.00002   0.00002  -0.00003
           D3           0.00001   0.00000   0.00001   0.00001  -0.00001
           D4           0.00000   0.00000   0.00000   0.00000   0.00000
           D5          -0.00005  -0.00001   0.00001   0.00001  -0.00003
           D6           0.00000   0.00000   0.00000   0.00000   0.00001
                          A5        A6        A7        D1        D2
           A5           0.15304
           A6          -0.00750   0.15192
           A7           0.01446   0.01558   0.12996
           D1          -0.00005  -0.00005   0.00010   0.00230
           D2           0.00005   0.00005  -0.00009   0.00000   0.00230
           D3           0.00001   0.00001  -0.00002   0.00000   0.00000
           D4           0.00000   0.00000   0.00001   0.00000   0.00000
           D5          -0.00003  -0.00003   0.00006   0.00000   0.00000
           D6          -0.00001  -0.00001   0.00001   0.00000   0.00000
                          D3        D4        D5        D6
           D3           0.03612
           D4           0.00000   0.03612
           D5           0.00000   0.00000   0.01690
           D6           0.00000   0.00000   0.00000   0.01690
 ITU=  1  0
 Use linear search instead of GDIIS.
 Linear search step of   0.600 exceeds DXMaxT=   0.505 but not scaled.
 Quartic linear search produced a step of  1.99912.
 Iteration  1 RMS(Cart)=  0.11243836 RMS(Int)=  0.04121022
 Iteration  2 RMS(Cart)=  0.04229607 RMS(Int)=  0.00133229
 Iteration  3 RMS(Cart)=  0.00123412 RMS(Int)=  0.00031912
 Iteration  4 RMS(Cart)=  0.00000036 RMS(Int)=  0.00031912
 Iteration  1 RMS(Cart)=  0.00000000 RMS(Int)=  0.00000000
 Variable       Old X    -DE/DX   Delta X   Delta X   Delta X     New X
                                 (Linear)    (Quad)   (Total)
    R1        7.34197   0.00485   0.00000   0.00000   0.00000   7.34197
    R2        3.59422   0.00276   0.06392   0.00000   0.06392   3.65814
    R3        1.81906   0.00935   0.04763   0.00000   0.04763   1.86669
    R4        1.81906   0.00935   0.04763   0.00000   0.04763   1.86669
    R5        1.81317   0.00670   0.03585   0.00000   0.03585   1.84903
    R6        1.81100   0.00639   0.03151   0.00000   0.03151   1.84251
    A1        2.26893   0.00141   0.00000   0.00000   0.00000   2.26893
    A2        1.98483   0.01824   0.14833   0.00000   0.14832   2.13315
    A3        1.98483   0.01824   0.14834   0.00000   0.14833   2.13316
    A4        2.31352  -0.03649  -0.29667   0.00000  -0.29668   2.01684
    A5        2.00180   0.01869   0.18225   0.00000   0.18225   2.18405
    A6        2.00957   0.02024   0.19778   0.00000   0.19778   2.20735
    A7        2.27182  -0.03893  -0.38004   0.00000  -0.38004   1.89178
    D1        1.57270   0.00015   0.00380   0.00000   0.00459   1.57728
    D2       -1.57142  -0.00008  -0.00124   0.00000  -0.00202  -1.57344
    D3        3.14145  -0.00002  -0.00029   0.00000  -0.00033   3.14112
    D4       -0.00002   0.00000  -0.00004   0.00000   0.00001  -0.00001
    D5        3.13846  -0.00016  -0.00626   0.00000  -0.00543   3.13303
    D6       -3.14144   0.00002   0.00030   0.00000   0.00024  -3.14120
         Item               Value     Threshold  Converged?
 Maximum Force            0.038933     0.000450     NO 
 RMS     Force            0.016342     0.000300     NO 
 Maximum Displacement     0.389737     0.001800     NO 
 RMS     Displacement     0.150226     0.001200     NO 
 Predicted change in Energy=-2.816590D-02
 GradGradGradGradGradGradGradGradGradGradGradGradGradGradGradGradGradGrad

                          Input orientation:                          
 ---------------------------------------------------------------------
 Center     Atomic      Atomic             Coordinates (Angstroms)
 Number     Number       Type             X           Y           Z
 ---------------------------------------------------------------------
      1         29           0       -0.081944    0.000889    0.010409
      2          8           0       -0.041789    0.000052    3.895404
      3          8           0        1.388027    0.000019   -1.249163
      4          1           0        1.295009   -0.000087   -2.223195
      5          1           0        2.338298   -0.000747   -1.030893
      6          1           0       -0.041123    0.835616    4.422285
      7          1           0       -0.039195   -0.835742    4.421915
 ---------------------------------------------------------------------
                    Distance matrix (angstroms):
                    1          2          3          4          5
     1  Cu   0.000000
     2  O    3.885203   0.000000
     3  O    1.935804   5.339564   0.000000
     4  H    2.623926   6.262929   0.978464   0.000000
     5  H    2.634746   5.471126   0.975017   1.584310   0.000000
     6  H    4.490333   0.987812   5.908131   6.829792   6.008186
     7  H    4.490342   0.987812   5.907333   6.829049   6.006897
                    6          7
     6  H    0.000000
     7  H    1.671359   0.000000
 Stoichiometry    CuH4O2(2+,2)
 Framework group  C1[X(CuH4O2)]
 Deg. of freedom    15
 Full point group                 C1      NOp   1
 Largest Abelian subgroup         C1      NOp   1
 Largest concise Abelian subgroup C1      NOp   1
                         Standard orientation:                         
 ---------------------------------------------------------------------
 Center     Atomic      Atomic             Coordinates (Angstroms)
 Number     Number       Type             X           Y           Z
 ---------------------------------------------------------------------
      1         29           0        0.474032    0.418373   -0.000076
      2          8           0       -3.339648   -0.323684    0.000045
      3          8           0        1.978666   -0.799582    0.000195
      4          1           0        2.919818   -0.531954   -0.000233
      5          1           0        1.935842   -1.773658    0.000409
      6          1           0       -3.857675   -0.418780    0.835734
      7          1           0       -3.857056   -0.422289   -0.835621
 ---------------------------------------------------------------------
 Rotational constants (GHZ):     18.1514139      1.6920613      1.5612398
 Standard basis: 6-311G(d) (5D, 7F)
 There are   102 symmetry adapted cartesian basis functions of A   symmetry.
 There are    94 symmetry adapted basis functions of A   symmetry.
    94 basis functions,   165 primitive gaussians,   102 cartesian basis functions
    24 alpha electrons       23 beta electrons
       nuclear repulsion energy       140.9747975563 Hartrees.
 NAtoms=    7 NActive=    7 NUniq=    7 SFac= 1.00D+00 NAtFMM=   60 NAOKFM=F Big=F
 Integral buffers will be    131072 words long.
 Raffenetti 2 integral format.
 Two-electron integral symmetry is turned on.
 One-electron integrals computed using PRISM.
 NBasis=    94 RedAO= T EigKep=  9.37D-03  NBF=    94
 NBsUse=    94 1.00D-06 EigRej= -1.00D+00 NBFU=    94
 Initial guess from the checkpoint file:  "pescuh2o2.chk"
 B after Tr=     0.000000    0.000000    0.000000
         Rot=    0.999994    0.000121    0.000002   -0.003315 Ang=   0.38 deg.
 Initial guess <Sx>= 0.0000 <Sy>= 0.0000 <Sz>= 0.5000 <S**2>= 0.7523 S= 0.5012
 ExpMin= 4.08D-02 ExpMax= 3.37D+05 ExpMxC= 1.14D+04 IAcc=2 IRadAn=         4 AccDes= 0.00D+00
 Harris functional with IExCor=  402 and IRadAn=       4 diagonalized for initial guess.
 HarFok:  IExCor=  402 AccDes= 0.00D+00 IRadAn=         4 IDoV= 1 UseB2=F ITyADJ=14
 ICtDFT=  3500011 ScaDFX=  1.000000  1.000000  1.000000  1.000000
 FoFCou: FMM=F IPFlag=           0 FMFlag=      100000 FMFlg1=           0
         NFxFlg=           0 DoJE=T BraDBF=F KetDBF=T FulRan=T
         wScrn=  0.000000 ICntrl=     500 IOpCl=  0 I1Cent=   200000004 NGrid=           0
         NMat0=    1 NMatS0=      1 NMatT0=    0 NMatD0=    1 NMtDS0=    0 NMtDT0=    0
 Petite list used in FoFCou.
 Keep R1 and R2 ints in memory in canonical form, NReq=21960802.
 Requested convergence on RMS density matrix=1.00D-08 within  64 cycles.
 Requested convergence on MAX density matrix=1.00D-06.
 Requested convergence on             energy=1.00D-06.
 No special actions if energy rises.
 SCF Done:  E(UB3LYP) =  -1792.54136511     A.U. after   20 cycles
            NFock= 20  Conv=0.81D-08     -V/T= 2.0007
 <Sx>= 0.0000 <Sy>= 0.0000 <Sz>= 0.5000 <S**2>= 0.7523 S= 0.5012
 <L.S>= 0.000000000000E+00
 Annihilation of the first spin contaminant:
 S**2 before annihilation     0.7523,   after     0.7500
 QCSCF skips out because SCF is already converged.
 Calling FoFJK, ICntrl=      2127 FMM=F ISym2X=0 I1Cent= 0 IOpClX= 1 NMat=1 NMatS=1 NMatT=0.
 ***** Axes restored to original set *****
 -------------------------------------------------------------------
 Center     Atomic                   Forces (Hartrees/Bohr)
 Number     Number              X              Y              Z
 -------------------------------------------------------------------
      1       29           0.006550254    0.000024409   -0.009745777
      2        8          -0.000037652   -0.000010602   -0.008166369
      3        8          -0.003166337    0.000032939    0.000507864
      4        1           0.000763209   -0.000030819    0.006353260
      5        1          -0.003949477   -0.000013872   -0.001401027
      6        1          -0.000085233   -0.014473764    0.006222853
      7        1          -0.000074765    0.014471709    0.006229197
 -------------------------------------------------------------------
 Cartesian Forces:  Max     0.014473764 RMS     0.006054636

 GradGradGradGradGradGradGradGradGradGradGradGradGradGradGradGradGradGrad
 Berny optimization.
 Using GEDIIS/GDIIS optimizer.
 FormGI is forming the generalized inverse of G from B-inverse, IUseBI=4.
 Internal  Forces:  Max     0.016167595 RMS     0.006072985
 Search for a local minimum.
 Step number   3 out of a maximum of  100 on scan point     1 out of    26
 All quantities printed in internal units (Hartrees-Bohrs-Radians)
 Mixed Optimization -- RFO/linear search
 Update second derivatives using D2CorX and points    2    3
 The second derivative matrix:
                          R1        R2        R3        R4        R5
           R1           0.00858
           R2           0.00018   0.19122
           R3           0.00029   0.00045   0.57407
           R4           0.00029   0.00045  -0.00274   0.57407
           R5           0.00020   0.00012  -0.00242  -0.00242   0.57474
           R6           0.00017  -0.00019  -0.00261  -0.00261  -0.00217
           A1           0.00001   0.00013   0.00021   0.00021   0.00015
           A2           0.00016  -0.00145  -0.00536  -0.00536  -0.00423
           A3           0.00016  -0.00145  -0.00536  -0.00536  -0.00423
           A4          -0.00032   0.00290   0.01073   0.01072   0.00847
           A5           0.00030   0.00030  -0.00319  -0.00319  -0.00277
           A6           0.00031   0.00008  -0.00387  -0.00387  -0.00330
           A7          -0.00060  -0.00038   0.00706   0.00706   0.00606
           D1           0.00000   0.00001   0.00001   0.00001   0.00001
           D2           0.00000  -0.00001  -0.00001  -0.00001  -0.00001
           D3           0.00000   0.00001   0.00001   0.00001   0.00001
           D4           0.00000   0.00000   0.00000   0.00000   0.00000
           D5           0.00000  -0.00002  -0.00002  -0.00002  -0.00001
           D6           0.00000   0.00000  -0.00001  -0.00001   0.00000
                          R6        A1        A2        A3        A4
           R6           0.57462
           A1           0.00012   0.25000
           A2          -0.00399   0.00012   0.15370
           A3          -0.00399   0.00012  -0.00630   0.15370
           A4           0.00799  -0.00023   0.01260   0.01260   0.13481
           A5          -0.00294   0.00022  -0.00585  -0.00585   0.01170
           A6          -0.00343   0.00023  -0.00657  -0.00657   0.01315
           A7           0.00636  -0.00044   0.01242   0.01242  -0.02485
           D1           0.00000   0.00000   0.00000   0.00000  -0.00001
           D2          -0.00001   0.00000  -0.00001  -0.00001   0.00001
           D3           0.00001   0.00000   0.00001   0.00001  -0.00001
           D4           0.00000   0.00000   0.00000   0.00000   0.00000
           D5          -0.00001   0.00000   0.00001   0.00001  -0.00002
           D6           0.00000   0.00000   0.00000   0.00000   0.00001
                          A5        A6        A7        D1        D2
           A5           0.15632
           A6          -0.00441   0.15477
           A7           0.00809   0.00964   0.14226
           D1           0.00001   0.00001  -0.00002   0.00230
           D2          -0.00001  -0.00001   0.00002   0.00000   0.00230
           D3           0.00001   0.00001  -0.00002   0.00000   0.00000
           D4           0.00000   0.00000   0.00001   0.00000   0.00000
           D5          -0.00001  -0.00001   0.00002   0.00000   0.00000
           D6          -0.00001  -0.00001   0.00002   0.00000   0.00000
                          D3        D4        D5        D6
           D3           0.03612
           D4           0.00000   0.03612
           D5           0.00000   0.00000   0.01690
           D6           0.00000   0.00000   0.00000   0.01690
 ITU=  0  1  0
 Use linear search instead of GDIIS.
     Eigenvalues ---    0.00230   0.01161   0.02479   0.03612   0.08833
     Eigenvalues ---    0.16000   0.16000   0.16520   0.19154   0.56855
     Eigenvalues ---    0.57681   0.57681   0.577041000.000001000.00000
     Eigenvalues --- 1000.000001000.000001000.000001000.00000
 RFO step:  Lambda=-2.93751603D-03 EMin= 2.29999932D-03
 Quartic linear search produced a step of  0.13442.
 Iteration  1 RMS(Cart)=  0.03415380 RMS(Int)=  0.00127333
 Iteration  2 RMS(Cart)=  0.00119266 RMS(Int)=  0.00009849
 Iteration  3 RMS(Cart)=  0.00000022 RMS(Int)=  0.00009849
 Iteration  1 RMS(Cart)=  0.00000000 RMS(Int)=  0.00000000
 Variable       Old X    -DE/DX   Delta X   Delta X   Delta X     New X
                                 (Linear)    (Quad)   (Total)
    R1        7.34197   0.00431   0.00000   0.00000   0.00000   7.34197
    R2        3.65814  -0.00843   0.00859  -0.05001  -0.04142   3.61672
    R3        1.86669  -0.00892   0.00640  -0.01804  -0.01164   1.85506
    R4        1.86669  -0.00892   0.00640  -0.01804  -0.01164   1.85506
    R5        1.84903  -0.00638   0.00482  -0.01286  -0.00804   1.84099
    R6        1.84251  -0.00420   0.00424  -0.00865  -0.00441   1.83810
    A1        2.26893   0.00101   0.00000   0.00000   0.00000   2.26893
    A2        2.13315   0.00808   0.01994   0.04408   0.06401   2.19716
    A3        2.13316   0.00808   0.01994   0.04409   0.06402   2.19719
    A4        2.01684  -0.01617  -0.03988  -0.08822  -0.12810   1.88874
    A5        2.18405  -0.00017   0.02450  -0.01298   0.01152   2.19557
    A6        2.20735   0.00054   0.02658  -0.00905   0.01754   2.22489
    A7        1.89178  -0.00037  -0.05108   0.02203  -0.02906   1.86272
    D1        1.57728   0.00013   0.00062   0.00899   0.00984   1.58712
    D2       -1.57344  -0.00006  -0.00027   0.00281   0.00231  -1.57113
    D3        3.14112  -0.00003  -0.00004  -0.00083  -0.00089   3.14023
    D4       -0.00001   0.00000   0.00000   0.00027   0.00028   0.00027
    D5        3.13303  -0.00006  -0.00073  -0.00519  -0.00565   3.12738
    D6       -3.14120   0.00003   0.00003   0.00094   0.00096  -3.14024
         Item               Value     Threshold  Converged?
 Maximum Force            0.016168     0.000450     NO 
 RMS     Force            0.006330     0.000300     NO 
 Maximum Displacement     0.076800     0.001800     NO 
 RMS     Displacement     0.034402     0.001200     NO 
 Predicted change in Energy=-2.005856D-03
 GradGradGradGradGradGradGradGradGradGradGradGradGradGradGradGradGradGrad

                          Input orientation:                          
 ---------------------------------------------------------------------
 Center     Atomic      Atomic             Coordinates (Angstroms)
 Number     Number       Type             X           Y           Z
 ---------------------------------------------------------------------
      1         29           0       -0.073312    0.003295   -0.009382
      2          8           0       -0.041965    0.000205    3.875694
      3          8           0        1.382828    0.000083   -1.251395
      4          1           0        1.303589   -0.000017   -2.222376
      5          1           0        2.334034   -0.003007   -1.048152
      6          1           0       -0.048026    0.794975    4.451843
      7          1           0       -0.039866   -0.795535    4.450530
 ---------------------------------------------------------------------
                    Distance matrix (angstroms):
                    1          2          3          4          5
     1  Cu   0.000000
     2  O    3.885203   0.000000
     3  O    1.913884   5.321378   0.000000
     4  H    2.606379   6.244756   0.974210   0.000000
     5  H    2.621907   5.467141   0.972682   1.562251   0.000000
     6  H    4.530996   0.981654   5.933474   6.855952   6.046564
     7  H    4.531011   0.981653   5.930347   6.853131   6.041441
                    6          7
     6  H    0.000000
     7  H    1.590532   0.000000
 Stoichiometry    CuH4O2(2+,2)
 Framework group  C1[X(CuH4O2)]
 Deg. of freedom    15
 Full point group                 C1      NOp   1
 Largest Abelian subgroup         C1      NOp   1
 Largest concise Abelian subgroup C1      NOp   1
                         Standard orientation:                         
 ---------------------------------------------------------------------
 Center     Atomic      Atomic             Coordinates (Angstroms)
 Number     Number       Type             X           Y           Z
 ---------------------------------------------------------------------
      1         29           0        0.480400    0.414599   -0.000297
      2          8           0       -3.335483   -0.316042    0.000187
      3          8           0        1.964386   -0.794010    0.000738
      4          1           0        2.905213   -0.541171   -0.000518
      5          1           0        1.935804   -1.766272    0.001326
      6          1           0       -3.903131   -0.410856    0.795442
      7          1           0       -3.900710   -0.424653   -0.795028
 ---------------------------------------------------------------------
 Rotational constants (GHZ):     18.5303676      1.6948944      1.5651211
 Standard basis: 6-311G(d) (5D, 7F)
 There are   102 symmetry adapted cartesian basis functions of A   symmetry.
 There are    94 symmetry adapted basis functions of A   symmetry.
    94 basis functions,   165 primitive gaussians,   102 cartesian basis functions
    24 alpha electrons       23 beta electrons
       nuclear repulsion energy       141.8283371437 Hartrees.
 NAtoms=    7 NActive=    7 NUniq=    7 SFac= 1.00D+00 NAtFMM=   60 NAOKFM=F Big=F
 Integral buffers will be    131072 words long.
 Raffenetti 2 integral format.
 Two-electron integral symmetry is turned on.
 One-electron integrals computed using PRISM.
 NBasis=    94 RedAO= T EigKep=  9.37D-03  NBF=    94
 NBsUse=    94 1.00D-06 EigRej= -1.00D+00 NBFU=    94
 Initial guess from the checkpoint file:  "pescuh2o2.chk"
 B after Tr=     0.000000    0.000000    0.000000
         Rot=    0.999999    0.000527    0.000009    0.001102 Ang=   0.14 deg.
 Initial guess <Sx>= 0.0000 <Sy>= 0.0000 <Sz>= 0.5000 <S**2>= 0.7523 S= 0.5012
 ExpMin= 4.08D-02 ExpMax= 3.37D+05 ExpMxC= 1.14D+04 IAcc=2 IRadAn=         4 AccDes= 0.00D+00
 Harris functional with IExCor=  402 and IRadAn=       4 diagonalized for initial guess.
 HarFok:  IExCor=  402 AccDes= 0.00D+00 IRadAn=         4 IDoV= 1 UseB2=F ITyADJ=14
 ICtDFT=  3500011 ScaDFX=  1.000000  1.000000  1.000000  1.000000
 FoFCou: FMM=F IPFlag=           0 FMFlag=      100000 FMFlg1=           0
         NFxFlg=           0 DoJE=T BraDBF=F KetDBF=T FulRan=T
         wScrn=  0.000000 ICntrl=     500 IOpCl=  0 I1Cent=   200000004 NGrid=           0
         NMat0=    1 NMatS0=      1 NMatT0=    0 NMatD0=    1 NMtDS0=    0 NMtDT0=    0
 Petite list used in FoFCou.
 Keep R1 and R2 ints in memory in canonical form, NReq=21960846.
 Requested convergence on RMS density matrix=1.00D-08 within  64 cycles.
 Requested convergence on MAX density matrix=1.00D-06.
 Requested convergence on             energy=1.00D-06.
 No special actions if energy rises.
 SCF Done:  E(UB3LYP) =  -1792.54356464     A.U. after   22 cycles
            NFock= 22  Conv=0.14D-08     -V/T= 2.0007
 <Sx>= 0.0000 <Sy>= 0.0000 <Sz>= 0.5000 <S**2>= 0.7523 S= 0.5011
 <L.S>= 0.000000000000E+00
 Annihilation of the first spin contaminant:
 S**2 before annihilation     0.7523,   after     0.7500
 QCSCF skips out because SCF is already converged.
 Calling FoFJK, ICntrl=      2127 FMM=F ISym2X=0 I1Cent= 0 IOpClX= 1 NMat=1 NMatS=1 NMatT=0.
 ***** Axes restored to original set *****
 -------------------------------------------------------------------
 Center     Atomic                   Forces (Hartrees/Bohr)
 Number     Number              X              Y              Z
 -------------------------------------------------------------------
      1       29           0.003398957    0.000031207   -0.006738314
      2        8          -0.000071632   -0.000015757    0.002078222
      3        8           0.000876574   -0.000006205   -0.001457171
      4        1          -0.002564224   -0.000011773    0.001748041
      5        1          -0.001499943    0.000001704    0.002340935
      6        1          -0.000081664   -0.002057738    0.001012437
      7        1          -0.000058067    0.002058564    0.001015851
 -------------------------------------------------------------------
 Cartesian Forces:  Max     0.006738314 RMS     0.002093923

 GradGradGradGradGradGradGradGradGradGradGradGradGradGradGradGradGradGrad
 Berny optimization.
 Using GEDIIS/GDIIS optimizer.
 FormGI is forming the generalized inverse of G from B-inverse, IUseBI=4.
 Internal  Forces:  Max     0.004191096 RMS     0.001873629
 Search for a local minimum.
 Step number   4 out of a maximum of  100 on scan point     1 out of    26
 All quantities printed in internal units (Hartrees-Bohrs-Radians)
 Mixed Optimization -- RFO/linear search
 Update second derivatives using D2CorX and points    3    4
 DE= -2.20D-03 DEPred=-2.01D-03 R= 1.10D+00
 TightC=F SS=  1.41D+00  RLast= 1.68D-01 DXNew= 8.4853D-01 5.0286D-01
 Trust test= 1.10D+00 RLast= 1.68D-01 DXMaxT set to 5.05D-01
 The second derivative matrix:
                          R1        R2        R3        R4        R5
           R1           0.00859
           R2           0.00011   0.17630
           R3           0.00003  -0.01097   0.57016
           R4           0.00003  -0.01097  -0.00665   0.57015
           R5           0.00007  -0.00907  -0.00709  -0.00710   0.57023
           R6           0.00008  -0.00631  -0.00578  -0.00578  -0.00520
           A1           0.00001   0.00012   0.00009   0.00009   0.00009
           A2           0.00038   0.00772  -0.00277  -0.00276  -0.00074
           A3           0.00038   0.00772  -0.00276  -0.00275  -0.00074
           A4          -0.00077  -0.01546   0.00551   0.00550   0.00147
           A5           0.00040  -0.00345  -0.00887  -0.00887  -0.00645
           A6           0.00042  -0.00264  -0.00889  -0.00889  -0.00641
           A7          -0.00082   0.00609   0.01776   0.01776   0.01286
           D1           0.00000  -0.00002  -0.00009  -0.00009  -0.00005
           D2           0.00000   0.00008   0.00015   0.00015   0.00009
           D3           0.00000  -0.00006  -0.00005  -0.00005  -0.00004
           D4           0.00000   0.00001   0.00000   0.00000   0.00000
           D5           0.00000  -0.00019  -0.00016  -0.00016  -0.00012
           D6           0.00000   0.00001   0.00000   0.00000   0.00000
                          R6        A1        A2        A3        A4
           R6           0.57259
           A1           0.00008   0.25001
           A2          -0.00162   0.00023   0.15212
           A3          -0.00162   0.00023  -0.00789   0.15211
           A4           0.00324  -0.00046   0.01579   0.01580   0.12837
           A5          -0.00536   0.00028  -0.00097  -0.00097   0.00194
           A6          -0.00546   0.00029  -0.00221  -0.00222   0.00443
           A7           0.01082  -0.00058   0.00318   0.00319  -0.00637
           D1          -0.00003   0.00000   0.00009   0.00009  -0.00018
           D2           0.00006   0.00000  -0.00015  -0.00015   0.00029
           D3          -0.00002   0.00000   0.00005   0.00005  -0.00011
           D4           0.00000   0.00000   0.00000   0.00000   0.00000
           D5          -0.00008   0.00000   0.00012   0.00012  -0.00024
           D6           0.00000   0.00000  -0.00001  -0.00001   0.00002
                          A5        A6        A7        D1        D2
           A5           0.15701
           A6          -0.00339   0.15605
           A7           0.00638   0.00734   0.14628
           D1           0.00005   0.00005  -0.00010   0.00230
           D2          -0.00004  -0.00005   0.00010   0.00000   0.00230
           D3           0.00000   0.00001  -0.00001   0.00000   0.00000
           D4           0.00000   0.00000  -0.00001   0.00000   0.00000
           D5          -0.00005  -0.00004   0.00009   0.00000   0.00000
           D6           0.00000   0.00000   0.00000   0.00000   0.00000
                          D3        D4        D5        D6
           D3           0.03612
           D4           0.00000   0.03612
           D5           0.00000   0.00000   0.01690
           D6           0.00000   0.00000   0.00000   0.01690
 ITU=  1  0  1  0
 Use linear search instead of GDIIS.
     Eigenvalues ---    0.00230   0.01096   0.02500   0.03612   0.10522
     Eigenvalues ---    0.13529   0.16000   0.16003   0.18329   0.55608
     Eigenvalues ---    0.57674   0.57681   0.577921000.000001000.00000
     Eigenvalues --- 1000.000001000.000001000.000001000.00000
 RFO step:  Lambda=-2.50460314D-04 EMin= 2.29977488D-03
 Quartic linear search produced a step of  0.15911.
 Iteration  1 RMS(Cart)=  0.01291550 RMS(Int)=  0.00007901
 Iteration  2 RMS(Cart)=  0.00007774 RMS(Int)=  0.00001653
 Iteration  3 RMS(Cart)=  0.00000000 RMS(Int)=  0.00001653
 Iteration  1 RMS(Cart)=  0.00000000 RMS(Int)=  0.00000000
 Variable       Old X    -DE/DX   Delta X   Delta X   Delta X     New X
                                 (Linear)    (Quad)   (Total)
    R1        7.34197   0.00414   0.00000   0.00000   0.00000   7.34197
    R2        3.61672  -0.00419  -0.00659  -0.02160  -0.02819   3.58852
    R3        1.85506  -0.00107  -0.00185  -0.00149  -0.00334   1.85172
    R4        1.85506  -0.00107  -0.00185  -0.00149  -0.00335   1.85171
    R5        1.84099  -0.00152  -0.00128  -0.00268  -0.00396   1.83703
    R6        1.83810  -0.00101  -0.00070  -0.00199  -0.00269   1.83541
    A1        2.26893   0.00091   0.00000   0.00000   0.00000   2.26893
    A2        2.19716   0.00126   0.01019   0.00063   0.01081   2.20797
    A3        2.19719   0.00126   0.01019   0.00066   0.01084   2.20803
    A4        1.88874  -0.00252  -0.02038  -0.00131  -0.02169   1.86705
    A5        2.19557  -0.00178   0.00183  -0.01540  -0.01357   2.18200
[...]
           A5         125.07917 125.05503 125.05097 125.07884 125.14258
           A6         125.08088 125.05557 125.04768 125.07931 125.14208
           A7         108.80558 108.73998 108.66490 108.58342 108.49235
           D1          77.51115  78.23929  79.45347  80.84733  82.16337
           D2         -77.52192 -78.24535 -79.39312 -80.81581 -82.20962
           D3          83.55444  83.23671  82.83845  82.83671  82.92232
           D4         -83.49440 -83.11144 -82.99950 -82.86690 -82.96942
           D5        -158.34913-159.58622-161.64270-164.11426-166.50392
           D6        -168.82831-168.22774-167.79439-167.69008-167.86726
                          21        22        23        24        25
     Eigenvalues --  **************************************************
           R1           1.88520   1.78520   1.68520   1.58520   1.48520
           R2           1.85920   1.85994   1.86095   1.86218   1.86400
           R3           0.97659   0.97829   0.98063   0.98392   0.98858
           R4           0.97659   0.97829   0.98064   0.98391   0.98859
           R5           0.97700   0.97684   0.97658   0.97628   0.97596
           R6           0.97700   0.97684   0.97658   0.97628   0.97596
           A1         130.00000 130.00000 130.00000 130.00000 130.00000
           A2         125.18828 125.52966 125.92063 126.44849 127.02490
           A3         125.18703 125.51631 125.92877 126.39556 127.07655
           A4         108.50187 108.04193 107.35967 106.40494 105.11597
           A5         125.23984 125.35263 125.44195 125.50556 125.55203
           A6         125.24073 125.35341 125.44226 125.50665 125.55574
           A7         108.41618 108.37764 108.36273 108.37599 108.42368
           D1          83.23085  83.90233  84.26249  84.30708  84.14137
           D2         -83.24458 -83.84186 -84.24534 -84.39397 -84.19107
           D3          83.29361  83.83117  84.43825  85.02839  85.65495
           D4         -83.28817 -83.92288 -84.44844 -84.94789 -85.56978
           D5        -168.37254-169.53017-170.26867-170.53743-170.37899
           D6        -168.47709-169.49668-170.47613-171.41346-172.48303
                          26
     Eigenvalues --  **********
           R1           1.38520
           R2           1.86734
           R3           0.99544
           R4           0.99544
           R5           0.97567
           R6           0.97567
           A1         130.00000
           A2         127.85521
           A3         127.84085
           A4         103.35925
           A5         125.59859
           A6         125.59380
           A7         108.48944
           D1          83.54372
           D2         -83.44465
           D3          86.37649
           D4         -86.39040
           D5        -169.47007
           D6        -173.80255
                          Input orientation:                          
 ---------------------------------------------------------------------
 Center     Atomic      Atomic             Coordinates (Angstroms)
 Number     Number       Type             X           Y           Z
 ---------------------------------------------------------------------
      1         29           0       -0.022774    0.340261    1.156606
      2          8           0        0.119680    0.070295    2.507758
      3          8           0        1.140585    0.001613   -0.264265
      4          1           0        1.191254   -0.830722   -0.770800
      5          1           0        1.863317    0.587327   -0.558430
      6          1           0        0.593536    0.615179    3.192936
      7          1           0       -0.068315   -0.783953    2.982957
 ---------------------------------------------------------------------
                    Distance matrix (angstroms):
                    1          2          3          4          5
     1  Cu   0.000000
     2  O    1.385203   0.000000
     3  O    1.867341   2.954840   0.000000
     4  H    2.561242   3.564975   0.975668   0.000000
     5  H    2.561197   3.564983   0.975671   1.583551   0.000000
     6  H    2.145240   0.995443   3.553585   4.261350   3.960539
     7  H    2.145108   0.995437   3.552887   3.959721   4.260637
                    6          7
     6  H    0.000000
     7  H    1.561956   0.000000
 Stoichiometry    CuH4O2(2+,2)
 Framework group  C1[X(CuH4O2)]
 Deg. of freedom    15
 Full point group                 C1      NOp   1
 Largest Abelian subgroup         C1      NOp   1
 Largest concise Abelian subgroup C1      NOp   1
                         Standard orientation:                         
 ---------------------------------------------------------------------
 Center     Atomic      Atomic             Coordinates (Angstroms)
 Number     Number       Type             X           Y           Z
 ---------------------------------------------------------------------
      1         29           0       -0.121360    0.294451   -0.000070
      2          8           0       -1.304837   -0.425390    0.000081
      3          8           0        1.647506   -0.303942    0.000087
      4          1           0        2.169437   -0.533616   -0.791598
      5          1           0        2.169418   -0.533052    0.791953
      6          1           0       -1.780830   -0.818166    0.781147
      7          1           0       -1.779930   -0.819588   -0.780808
 ---------------------------------------------------------------------
 Rotational constants (GHZ):     35.9285532      5.6196455      5.1042747

 **********************************************************************

            Population analysis using the SCF density.

 **********************************************************************

 Orbital symmetries:
 Alpha Orbitals:
       Occupied  (A) (A) (A) (A) (A) (A) (A) (A) (A) (A) (A) (A)
                 (A) (A) (A) (A) (A) (A) (A) (A) (A) (A) (A) (A)
       Virtual   (A) (A) (A) (A) (A) (A) (A) (A) (A) (A) (A) (A)
                 (A) (A) (A) (A) (A) (A) (A) (A) (A) (A) (A) (A)
                 (A) (A) (A) (A) (A) (A) (A) (A) (A) (A) (A) (A)
                 (A) (A) (A) (A) (A) (A) (A) (A) (A) (A) (A) (A)
                 (A) (A) (A) (A) (A) (A) (A) (A) (A) (A) (A) (A)
                 (A) (A) (A) (A) (A) (A) (A) (A) (A) (A)
 Beta  Orbitals:
       Occupied  (A) (A) (A) (A) (A) (A) (A) (A) (A) (A) (A) (A)
                 (A) (A) (A) (A) (A) (A) (A) (A) (A) (A) (A)
       Virtual   (A) (A) (A) (A) (A) (A) (A) (A) (A) (A) (A) (A)
                 (A) (A) (A) (A) (A) (A) (A) (A) (A) (A) (A) (A)
                 (A) (A) (A) (A) (A) (A) (A) (A) (A) (A) (A) (A)
                 (A) (A) (A) (A) (A) (A) (A) (A) (A) (A) (A) (A)
                 (A) (A) (A) (A) (A) (A) (A) (A) (A) (A) (A) (A)
                 (A) (A) (A) (A) (A) (A) (A) (A) (A) (A) (A)
 The electronic state is 2-A.
 Alpha  occ. eigenvalues -- -323.58557 -39.40696 -34.64030 -34.62603 -34.60707
 Alpha  occ. eigenvalues --  -19.70856 -19.61789  -4.94487  -3.48382  -3.43714
 Alpha  occ. eigenvalues --   -3.39955  -1.61786  -1.49992  -1.14187  -1.12638
 Alpha  occ. eigenvalues --   -1.03526  -1.01732  -0.95443  -0.89097  -0.88419
 Alpha  occ. eigenvalues --   -0.88186  -0.84725  -0.81863  -0.79271
 Alpha virt. eigenvalues --   -0.46849  -0.37692  -0.33431  -0.32469  -0.26877
 Alpha virt. eigenvalues --   -0.19930  -0.18597  -0.03231  -0.03184   0.01291
 Alpha virt. eigenvalues --    0.13359   0.21449   0.28972   0.33131   0.34744
 Alpha virt. eigenvalues --    0.40024   0.58249   0.67518   0.85370   0.89513
 Alpha virt. eigenvalues --    0.96045   0.97873   1.03572   1.13262   1.18984
 Alpha virt. eigenvalues --    1.49408   1.53627   1.59624   1.60638   1.63485
 Alpha virt. eigenvalues --    2.12839   2.16141   2.22895   2.26599   2.33919
 Alpha virt. eigenvalues --    2.49973   2.58761   2.65336   2.66852   2.93238
 Alpha virt. eigenvalues --    3.13553   3.38218   3.38585   3.39216   3.40356
 Alpha virt. eigenvalues --    3.54575   3.63337   3.70851   4.23893   4.28638
 Alpha virt. eigenvalues --    4.42141   4.47300   4.51613   5.30813   6.59314
 Alpha virt. eigenvalues --    6.59520   6.74177   6.74190   6.88060   8.87813
 Alpha virt. eigenvalues --    8.92114   9.51912  31.53074  42.26197  42.28380
 Alpha virt. eigenvalues --   42.71476  49.20913  49.24455 183.55728 978.82721
  Beta  occ. eigenvalues -- -323.58529 -39.38619 -34.61526 -34.60629 -34.60113
  Beta  occ. eigenvalues --  -19.70344 -19.61451  -4.90322  -3.41682  -3.38814
  Beta  occ. eigenvalues --   -3.38517  -1.60450  -1.49263  -1.12042  -1.11970
  Beta  occ. eigenvalues --   -1.01435  -0.98569  -0.93905  -0.87098  -0.86275
  Beta  occ. eigenvalues --   -0.86191  -0.81677  -0.78946
  Beta virt. eigenvalues --   -0.63451  -0.46200  -0.37392  -0.33228  -0.32247
  Beta virt. eigenvalues --   -0.26753  -0.19725  -0.18463  -0.03094  -0.02879
  Beta virt. eigenvalues --    0.01437   0.14708   0.22632   0.29281   0.34127
  Beta virt. eigenvalues --    0.35164   0.40252   0.59041   0.67996   0.86083
  Beta virt. eigenvalues --    0.90668   0.97794   1.00616   1.04208   1.14635
  Beta virt. eigenvalues --    1.19676   1.51493   1.53818   1.59894   1.60780
  Beta virt. eigenvalues --    1.63617   2.14366   2.17449   2.24291   2.27275
  Beta virt. eigenvalues --    2.34831   2.51355   2.59765   2.65953   2.67542
  Beta virt. eigenvalues --    2.93653   3.15482   3.38923   3.39391   3.41576
  Beta virt. eigenvalues --    3.42481   3.57742   3.65403   3.72114   4.25096
  Beta virt. eigenvalues --    4.30095   4.42696   4.48108   4.51901   5.32498
  Beta virt. eigenvalues --    6.61023   6.61190   6.75841   6.81557   6.89851
  Beta virt. eigenvalues --    8.88820   8.95202   9.55632  31.55828  42.27039
  Beta virt. eigenvalues --   42.30914  42.74680  49.21410  49.24819 183.56788
  Beta virt. eigenvalues --  978.82948
          Condensed to atoms (all electrons):
               1          2          3          4          5          6
     1  Cu  27.444315   0.021364   0.089336  -0.005348  -0.005348  -0.012389
     2  O    0.021364   8.401104  -0.000494   0.000503   0.000504   0.227990
     3  O    0.089336  -0.000494   8.324394   0.246479   0.246478   0.000771
     4  H   -0.005348   0.000503   0.246479   0.210109  -0.015513  -0.000013
     5  H   -0.005348   0.000504   0.246478  -0.015513   0.210115   0.000105
     6  H   -0.012389   0.227990   0.000771  -0.000013   0.000105   0.208864
     7  H   -0.012408   0.228003   0.000773   0.000105  -0.000013  -0.014781
               7
     1  Cu  -0.012408
     2  O    0.228003
     3  O    0.000773
     4  H    0.000105
     5  H   -0.000013
     6  H   -0.014781
     7  H    0.208888
          Atomic-Atomic Spin Densities.
               1          2          3          4          5          6
     1  Cu   0.779147  -0.072443  -0.024050   0.000616   0.000616   0.000729
     2  O   -0.072443   0.307626  -0.009136   0.000140   0.000140  -0.001574
     3  O   -0.024050  -0.009136   0.135479  -0.001189  -0.001189  -0.000069
     4  H    0.000616   0.000140  -0.001189  -0.000387   0.000451   0.000000
     5  H    0.000616   0.000140  -0.001189   0.000451  -0.000391  -0.000004
     6  H    0.000729  -0.001574  -0.000069   0.000000  -0.000004  -0.003564
     7  H    0.000729  -0.001577  -0.000069  -0.000004   0.000000   0.000717
               7
     1  Cu   0.000729
     2  O   -0.001577
     3  O   -0.000069
     4  H   -0.000004
     5  H    0.000000
     6  H    0.000717
     7  H   -0.003577
 Mulliken charges and spin densities:
               1          2
     1  Cu   1.480478   0.685344
     2  O   -0.878973   0.223176
     3  O   -0.907738   0.099778
     4  H    0.563677  -0.000373
     5  H    0.563671  -0.000378
     6  H    0.589453  -0.003766
     7  H    0.589433  -0.003782
 Sum of Mulliken charges =   2.00000   1.00000
 Mulliken charges and spin densities with hydrogens summed into heavy atoms:
               1          2
     1  Cu   1.480478   0.685344
     2  O    0.299912   0.215629
     3  O    0.219610   0.099027
 Electronic spatial extent (au):  <R**2>=            236.4105
 Charge=              2.0000 electrons
 Dipole moment (field-independent basis, Debye):
    X=             -0.5371    Y=             -2.3357    Z=              0.0008  Tot=              2.3967
 Quadrupole moment (field-independent basis, Debye-Ang):
   XX=              4.1533   YY=            -16.6830   ZZ=            -14.3803
   XY=              1.6171   XZ=             -0.0021   YZ=              0.0034
 Traceless Quadrupole moment (field-independent basis, Debye-Ang):
   XX=             13.1233   YY=             -7.7130   ZZ=             -5.4103
   XY=              1.6171   XZ=             -0.0021   YZ=              0.0034
 Octapole moment (field-independent basis, Debye-Ang**2):
  XXX=              9.9075  YYY=              4.8411  ZZZ=              0.0022  XYY=             -4.7644
  XXY=            -19.9327  XXZ=              0.0130  XZZ=              0.0229  YZZ=             -2.3352
  YYZ=             -0.0067  XYZ=             -0.0010
 Hexadecapole moment (field-independent basis, Debye-Ang**3):
 XXXX=            -58.4157 YYYY=            -27.7282 ZZZZ=            -12.1799 XXXY=             -2.3389
 XXXZ=             -0.0180 YYYX=              3.6551 YYYZ=              0.0080 ZZZX=             -0.0015
 ZZZY=              0.0015 XXYY=            -21.1196 XXZZ=             -7.3299 YYZZ=             -4.5062
 XXYZ=              0.0066 YYXZ=              0.0043 ZZXY=              1.0345
 N-N= 2.152571361647D+02 E-N=-4.690562062990D+03  KE= 1.792518406792D+03
                          Isotropic Fermi Contact Couplings
        Atom                 a.u.       MegaHertz       Gauss      10(-4) cm-1
     1  Cu(63)             0.06423      76.17914      27.18261      25.41063
     2  O(17)              0.07863     -47.66254     -17.00718     -15.89851
     3  O(17)              0.09815     -59.49710     -21.23004     -19.84609
     4  H(1)               0.00036       1.58770       0.56653       0.52960
     5  H(1)               0.00035       1.57531       0.56211       0.52547
     6  H(1)              -0.00079      -3.51869      -1.25556      -1.17371
     7  H(1)              -0.00080      -3.56511      -1.27212      -1.18919
 --------------------------------------------------------
       Center         ----  Spin Dipole Couplings  ----
                      3XX-RR        3YY-RR        3ZZ-RR
 --------------------------------------------------------
     1   Atom        1.772841      1.834838     -3.607679
     2   Atom        0.596850     -0.187104     -0.409747
     3   Atom        0.340954     -0.097121     -0.243833
     4   Atom        0.007831     -0.014158      0.006327
     5   Atom        0.007834     -0.014173      0.006339
     6   Atom        0.003975     -0.013943      0.009968
     7   Atom        0.003935     -0.013854      0.009919
 --------------------------------------------------------
                        XY            XZ            YZ
 --------------------------------------------------------
     1   Atom        1.275330     -0.000709     -0.003426
     2   Atom       -0.391219      0.000851     -0.000386
     3   Atom        0.277017     -0.000126     -0.000068
     4   Atom       -0.006541     -0.017311      0.010059
     5   Atom       -0.006528      0.017315     -0.010042
     6   Atom        0.015769     -0.023547     -0.026032
     7   Atom        0.015784      0.023514      0.026087
 --------------------------------------------------------


 ---------------------------------------------------------------------------------
              Anisotropic Spin Dipole Couplings in Principal Axis System
 ---------------------------------------------------------------------------------

       Atom             a.u.   MegaHertz   Gauss  10(-4) cm-1        Axes

              Baa    -3.6077  -510.782  -182.260  -170.378  0.0000  0.0006  1.0000
     1 Cu(63) Bbb     0.5281    74.774    26.681    24.942  0.7156 -0.6985  0.0005
              Bcc     3.0795   436.007   155.578   145.436  0.6985  0.7156 -0.0004
 
              Baa    -0.4097    29.649    10.580     9.890 -0.0005  0.0008  1.0000
     2 O(17)  Bbb    -0.3489    25.248     9.009     8.422  0.3822  0.9241 -0.0005
              Bcc     0.7587   -54.897   -19.589   -18.312  0.9241 -0.3822  0.0008
 
              Baa    -0.2438    17.644     6.296     5.885  0.0000  0.0006  1.0000
     3 O(17)  Bbb    -0.2312    16.732     5.970     5.581 -0.4358  0.9001 -0.0005
              Bcc     0.4751   -34.376   -12.266   -11.466  0.9001  0.4358 -0.0002
 
              Baa    -0.0183    -9.758    -3.482    -3.255 -0.0350  0.9163 -0.3990
     4 H(1)   Bbb    -0.0094    -5.012    -1.788    -1.672  0.7307  0.2959  0.6153
              Bcc     0.0277    14.770     5.270     4.927  0.6818 -0.2700 -0.6799
 
              Baa    -0.0183    -9.758    -3.482    -3.255 -0.0350  0.9166  0.3983
     5 H(1)   Bbb    -0.0094    -5.012    -1.788    -1.672  0.7306  0.2954 -0.6156
              Bcc     0.0277    14.770     5.270     4.927  0.6819 -0.2695  0.6800
 
              Baa    -0.0306   -16.353    -5.835    -5.455 -0.0274  0.8487  0.5281
     6 H(1)   Bbb    -0.0152    -8.104    -2.892    -2.703  0.8277 -0.2770  0.4881
              Bcc     0.0458    24.457     8.727     8.158 -0.5605 -0.4505  0.6949
 
              Baa    -0.0306   -16.353    -5.835    -5.455 -0.0269  0.8478 -0.5296
     7 H(1)   Bbb    -0.0152    -8.103    -2.891    -2.703  0.8281 -0.2779 -0.4869
              Bcc     0.0458    24.456     8.727     8.158  0.5599  0.4516  0.6946
 

 ---------------------------------------------------------------------------------

 B after Tr=     0.418553   -0.753540   -1.088356
         Rot=    0.983632    0.058303    0.034483   -0.166970 Ang=  20.76 deg.
 Atom   5 needs variable   3=   0.9756711092 but is    0.9756676443
 Input z-matrix variables are not compatible with final structure.
 1\1\GINC-MILLENNIUM-FALCON\Scan\UB3LYP\6-311G(d)\Cu1H4O2(2+,2)\JAKE\17
 -Jun-2016\0\\#opt=(modredundant,maxcycles=350) B3LYP/6-311G* scf=xqc\\
 cu2(h20)2\\2,2\Cu,-0.204995529,0.5343100461,1.1330522685\O,-0.06254121
 39,0.2643431785,2.4842043731\O,0.9583635834,0.1956619755,-0.287819347\
 H,1.0090323685,-0.6366735628,-0.7943542204\H,1.6810953075,0.7813754041
 ,-0.5819838382\H,0.4113138961,0.8092276837,3.1693819715\H,-0.250536764
 9,-0.5899040292,2.9594028085\\Version=EM64L-G09RevD.01\State=2-A\HF=-1
 792.5440485,-1792.5433312,-1792.542698,-1792.5421796,-1792.5418235,-17
 92.5416774,-1792.541802,-1792.5422693,-1792.5431627,-1792.5445569,-179
 2.5465432,-1792.5540045,-1792.5576337,-1792.5621055,-1792.5674294,-179
 2.5735336,-1792.5802293,-1792.5871854,-1792.5938855,-1792.5994837,-179
 2.6026478,-1792.6011532,-1792.5915623,-1792.5684549,-1792.5232469,-179
 2.442599\S2=0.752354,0.752342,0.752336,0.752338,0.752355,0.752388,0.75
 2441,0.752504,0.752612,0.752733,0.752862,0.759152,0.75824,0.757121,0.7
 55858,0.754577,0.753443,0.752566,0.751982,0.751649,0.751495,0.751453,0
 .751475,0.751525,0.751579,0.751612\S2-1=0.,0.,0.,0.,0.,0.,0.,0.,0.,0.,
 0.,0.,0.,0.,0.,0.,0.,0.,0.,0.,0.,0.,0.,0.,0.,0.\S2A=0.750004,0.750004,
 0.750004,0.750004,0.750004,0.750004,0.750004,0.750004,0.750004,0.75000
 4,0.750004,0.75001,0.750009,0.750008,0.750007,0.750005,0.750004,0.7500
 03,0.750002,0.750002,0.750002,0.750002,0.750002,0.750002,0.750002,0.75
 0002\RMSD=5.033e-09,8.152e-10,5.794e-09,1.857e-09,9.135e-09,4.762e-09,
 2.493e-09,7.285e-09,3.997e-09,3.781e-10,1.425e-09,4.173e-09,6.712e-09,
 7.927e-09,3.399e-09,4.502e-09,1.127e-09,3.082e-09,1.539e-09,6.475e-09,
 5.958e-09,7.039e-09,7.310e-09,2.837e-09,4.225e-09,9.651e-09\PG=C01 [X(
 Cu1H4O2)]\\@


 AN AIRPLANE IS A COLLECTION OF SPARE PARTS
 FLYING IN CLOSE FORMATION.
 Job cpu time:       0 days  1 hours  0 minutes  9.2 seconds.
 File lengths (MBytes):  RWF=     10 Int=      0 D2E=      0 Chk=      3 Scr=      1
 Normal termination of Gaussian 09 at Fri Jun 17 14:10:38 2016.
