 Entering Gaussian System, Link 0=g09
 Input=2coord_b3lyp_A_F_125.inp
 Output=2coord_b3lyp_A_F_125.log
 Initial command:
 /usr/local/g09/l1.exe "./Gau-6255.inp" -scrdir="./"
 Entering Link 1 = /usr/local/g09/l1.exe PID=      6257.
  
 Copyright (c) 1988,1990,1992,1993,1995,1998,2003,2009,2013,
            Gaussian, Inc.  All Rights Reserved.
  
 This is part of the Gaussian(R) 09 program.  It is based on
 the Gaussian(R) 03 system (copyright 2003, Gaussian, Inc.),
 the Gaussian(R) 98 system (copyright 1998, Gaussian, Inc.),
 the Gaussian(R) 94 system (copyright 1995, Gaussian, Inc.),
 the Gaussian 92(TM) system (copyright 1992, Gaussian, Inc.),
 the Gaussian 90(TM) system (copyright 1990, Gaussian, Inc.),
 the Gaussian 88(TM) system (copyright 1988, Gaussian, Inc.),
 the Gaussian 86(TM) system (copyright 1986, Carnegie Mellon
 University), and the Gaussian 82(TM) system (copyright 1983,
 Carnegie Mellon University). Gaussian is a federally registered
 trademark of Gaussian, Inc.
  
 This software contains proprietary and confidential information,
 including trade secrets, belonging to Gaussian, Inc.
  
 This software is provided under written license and may be
 used, copied, transmitted, or stored only in accord with that
 written license.
  
 The following legend is applicable only to US Government
 contracts under FAR:
  
                    RESTRICTED RIGHTS LEGEND
  
 Use, reproduction and disclosure by the US Government is
 subject to restrictions as set forth in subparagraphs (a)
 and (c) of the Commercial Computer Software - Restricted
 Rights clause in FAR 52.227-19.
  
 Gaussian, Inc.
 340 Quinnipiac St., Bldg. 40, Wallingford CT 06492
  
  
 ---------------------------------------------------------------
 Warning -- This program may not be used in any manner that
 competes with the business of Gaussian, Inc. or will provide
 assistance to any competitor of Gaussian, Inc.  The licensee
 of this program is prohibited from giving any competitor of
 Gaussian, Inc. access to this program.  By using this program,
 the user acknowledges that Gaussian, Inc. is engaged in the
 business of creating and licensing software in the field of
 computational chemistry and represents and warrants to the
 licensee that it is not a competitor of Gaussian, Inc. and that
 it will not use this program in any manner prohibited above.
 ---------------------------------------------------------------
  

 Cite this work as:
 Gaussian 09, Revision D.01,
 M. J. Frisch, G. W. Trucks, H. B. Schlegel, G. E. Scuseria, 
 M. A. Robb, J. R. Cheeseman, G. Scalmani, V. Barone, B. Mennucci, 
 G. A. Petersson, H. Nakatsuji, M. Caricato, X. Li, H. P. Hratchian, 
 A. F. Izmaylov, J. Bloino, G. Zheng, J. L. Sonnenberg, M. Hada, 
 M. Ehara, K. Toyota, R. Fukuda, J. Hasegawa, M. Ishida, T. Nakajima, 
 Y. Honda, O. Kitao, H. Nakai, T. Vreven, J. A. Montgomery, Jr., 
 J. E. Peralta, F. Ogliaro, M. Bearpark, J. J. Heyd, E. Brothers, 
 K. N. Kudin, V. N. Staroverov, T. Keith, R. Kobayashi, J. Normand, 
 K. Raghavachari, A. Rendell, J. C. Burant, S. S. Iyengar, J. Tomasi, 
 M. Cossi, N. Rega, J. M. Millam, M. Klene, J. E. Knox, J. B. Cross, 
 V. Bakken, C. Adamo, J. Jaramillo, R. Gomperts, R. E. Stratmann, 
 O. Yazyev, A. J. Austin, R. Cammi, C. Pomelli, J. W. Ochterski, 
 R. L. Martin, K. Morokuma, V. G. Zakrzewski, G. A. Voth, 
 P. Salvador, J. J. Dannenberg, S. Dapprich, A. D. Daniels, 
 O. Farkas, J. B. Foresman, J. V. Ortiz, J. Cioslowski, 
 and D. J. Fox, Gaussian, Inc., Wallingford CT, 2013.
 
 ******************************************
 Gaussian 09:  EM64L-G09RevD.01 24-Apr-2013
                17-Jun-2016 
 ******************************************
 %mem=2GB
 %nprocshared=1
 Will use up to    1 processors via shared memory.
 %chk=pescuh2o2.chk
 -------------------------------------------------------
 #opt=(modredundant,maxcycles=350) B3LYP/6-311G* scf=xqc
 -------------------------------------------------------
 1/6=350,14=-1,18=120,19=15,26=3,38=1/1,3;
 2/9=110,12=2,17=6,18=5,40=1/2;
 3/5=4,6=6,7=1,11=2,16=1,25=1,30=1,71=1,74=-5/1,2,3;
 4//1;
 5/5=2,8=3,13=1,38=5/2,8;
 6/7=2,8=2,9=2,10=2,28=1/1;
 7//1,2,3,16;
 1/6=350,14=-1,18=20,19=15,26=3/3(2);
 2/9=110/2;
 99//99;
 2/9=110/2;
 3/5=4,6=6,7=1,11=2,16=1,25=1,30=1,71=1,74=-5/1,2,3;
 4/5=5,16=3,69=1/1;
 5/5=2,8=3,13=1,38=5/2,8;
 7//1,2,3,16;
 1/6=350,14=-1,18=20,19=15,26=3/3(-5);
 2/9=110/2;
 6/7=2,8=2,9=2,10=2,19=2,28=1/1;
 99/9=1/99;
 ---------
 cu2(h20)2
 ---------
 Symbolic Z-matrix:
 Charge =  2 Multiplicity = 2
 Cu
 O                    1    A
 O                    1    B        2    H
 H                    3    C        1    D        2    E        0
 H                    3    C        1    D        2    F        0
 H                    2    C        1    D        3    G        0
 H                    2    C        1    D        6    E        0
       Variables:
  A                     3.8852                   
  B                     1.88506                  
  C                     0.95                     
  D                   109.471                    
  E                   180.                       
  F                     0.                       
  G                    90.                       
  H                   125.                       
 
     4 tetrahedral angles replaced.
 Add virtual bond connecting atoms O2         and Cu1        Dist= 7.34D+00.
 The following ModRedundant input section has been read:
 A       2       1       3 F                                                   
 B       1       2 S  25 -0.100                                                
 

 GradGradGradGradGradGradGradGradGradGradGradGradGradGradGradGradGradGrad
 Berny optimization.
 Initialization pass.
                           ----------------------------
                           !    Initial Parameters    !
                           ! (Angstroms and Degrees)  !
 --------------------------                            --------------------------
 ! Name  Definition              Value          Derivative Info.                !
 --------------------------------------------------------------------------------
 ! R1    R(1,2)                  3.8852         Scan                            !
 ! R2    R(1,3)                  1.8851         estimate D2E/DX2                !
 ! R3    R(2,6)                  0.95           estimate D2E/DX2                !
 ! R4    R(2,7)                  0.95           estimate D2E/DX2                !
 ! R5    R(3,4)                  0.95           estimate D2E/DX2                !
 ! R6    R(3,5)                  0.95           estimate D2E/DX2                !
 ! A1    A(2,1,3)              125.0            Frozen                          !
 ! A2    A(1,2,6)              109.4712         estimate D2E/DX2                !
 ! A3    A(1,2,7)              109.4712         estimate D2E/DX2                !
 ! A4    A(6,2,7)              141.0576         estimate D2E/DX2                !
 ! A5    A(1,3,4)              109.4712         estimate D2E/DX2                !
 ! A6    A(1,3,5)              109.4712         estimate D2E/DX2                !
 ! A7    A(4,3,5)              141.0576         estimate D2E/DX2                !
 ! D1    D(3,1,2,6)             90.0            estimate D2E/DX2                !
 ! D2    D(3,1,2,7)            -90.0            estimate D2E/DX2                !
 ! D3    D(2,1,3,4)            180.0            estimate D2E/DX2                !
 ! D4    D(2,1,3,5)              0.0            estimate D2E/DX2                !
 ! D5    D(1,2,6,7)            180.0            estimate D2E/DX2                !
 ! D6    D(1,3,4,5)            180.0            estimate D2E/DX2                !
 --------------------------------------------------------------------------------
 Trust Radius=3.00D-01 FncErr=1.00D-07 GrdErr=1.00D-06
 Number of optimizations in scan=  26
 Number of steps in this run=    100 maximum allowed number of steps=    100.
 GradGradGradGradGradGradGradGradGradGradGradGradGradGradGradGradGradGrad

                          Input orientation:                          
 ---------------------------------------------------------------------
 Center     Atomic      Atomic             Coordinates (Angstroms)
 Number     Number       Type             X           Y           Z
 ---------------------------------------------------------------------
      1         29           0        0.000000    0.000000    0.000000
      2          8           0        0.000000    0.000000    3.885203
      3          8           0        1.544152    0.000000   -1.081227
      4          1           0        1.289815    0.000000   -1.996548
      5          1           0        2.317284    0.000000   -0.529170
      6          1           0        0.000000    0.895669    4.201870
      7          1           0        0.000000   -0.895669    4.201870
 ---------------------------------------------------------------------
                    Distance matrix (angstroms):
                    1          2          3          4          5
     1  Cu   0.000000
     2  O    3.885203   0.000000
     3  O    1.885061   5.200945   0.000000
     4  H    2.376936   6.021513   0.950000   0.000000
     5  H    2.376936   4.985629   0.950000   1.791337   0.000000
     6  H    4.296269   0.950000   5.576534   6.394234   5.343666
     7  H    4.296269   0.950000   5.576534   6.394234   5.343666
                    6          7
     6  H    0.000000
     7  H    1.791337   0.000000
 Stoichiometry    CuH4O2(2+,2)
 Framework group  CS[SG(CuH2O2),X(H2)]
 Deg. of freedom    10
 Full point group                 CS      NOp   2
 Largest Abelian subgroup         CS      NOp   2
 Largest concise Abelian subgroup CS      NOp   2
                         Standard orientation:                         
 ---------------------------------------------------------------------
 Center     Atomic      Atomic             Coordinates (Angstroms)
 Number     Number       Type             X           Y           Z
 ---------------------------------------------------------------------
      1         29           0        0.000000    0.663243    0.000000
      2          8           0       -1.908036   -2.721163    0.000000
      3          8           0        1.876106    0.846763    0.000000
      4          1           0        2.104071    1.769006    0.000000
      5          1           0        2.278467   -0.013822    0.000000
      6          1           0       -2.063552   -2.997012    0.895669
      7          1           0       -2.063552   -2.997012   -0.895669
 ---------------------------------------------------------------------
 Rotational constants (GHZ):     16.6009032      1.7802666      1.6245577
 Standard basis: 6-311G(d) (5D, 7F)
 There are    74 symmetry adapted cartesian basis functions of A'  symmetry.
 There are    28 symmetry adapted cartesian basis functions of A"  symmetry.
 There are    67 symmetry adapted basis functions of A'  symmetry.
 There are    27 symmetry adapted basis functions of A"  symmetry.
    94 basis functions,   165 primitive gaussians,   102 cartesian basis functions
    24 alpha electrons       23 beta electrons
       nuclear repulsion energy       145.1445646847 Hartrees.
 NAtoms=    7 NActive=    7 NUniq=    6 SFac= 1.36D+00 NAtFMM=   60 NAOKFM=F Big=F
 Integral buffers will be    131072 words long.
 Raffenetti 2 integral format.
 Two-electron integral symmetry is turned on.
 One-electron integrals computed using PRISM.
 NBasis=    94 RedAO= T EigKep=  1.33D-02  NBF=    67    27
 NBsUse=    94 1.00D-06 EigRej= -1.00D+00 NBFU=    67    27
 ExpMin= 4.08D-02 ExpMax= 3.37D+05 ExpMxC= 1.14D+04 IAcc=2 IRadAn=         4 AccDes= 0.00D+00
 Harris functional with IExCor=  402 and IRadAn=       4 diagonalized for initial guess.
 HarFok:  IExCor=  402 AccDes= 0.00D+00 IRadAn=         4 IDoV= 1 UseB2=F ITyADJ=14
 ICtDFT=  3500011 ScaDFX=  1.000000  1.000000  1.000000  1.000000
 FoFCou: FMM=F IPFlag=           0 FMFlag=      100000 FMFlg1=           0
         NFxFlg=           0 DoJE=T BraDBF=F KetDBF=T FulRan=T
         wScrn=  0.000000 ICntrl=     500 IOpCl=  0 I1Cent=   200000004 NGrid=           0
         NMat0=    1 NMatS0=      1 NMatT0=    0 NMatD0=    1 NMtDS0=    0 NMtDT0=    0
 Petite list used in FoFCou.
 Initial guess orbital symmetries:
 Alpha Orbitals:
       Occupied  (A') (A') (A') (A') (A") (A') (A') (A') (A') (A')
                 (A") (A') (A') (A') (A") (A') (A") (A') (A') (A')
                 (A') (A') (A") (A")
       Virtual   (A') (A') (A') (A') (A") (A') (A') (A') (A') (A")
                 (A") (A') (A') (A') (A') (A") (A') (A') (A") (A')
                 (A') (A") (A') (A") (A') (A') (A') (A') (A') (A")
                 (A") (A") (A") (A') (A') (A') (A') (A") (A') (A')
                 (A') (A') (A") (A') (A") (A') (A") (A') (A") (A')
                 (A') (A') (A") (A') (A") (A') (A") (A') (A') (A")
                 (A') (A') (A') (A") (A') (A') (A') (A') (A') (A')
 Beta  Orbitals:
       Occupied  (A') (A') (A') (A') (A") (A') (A') (A') (A') (A')
                 (A") (A') (A') (A') (A") (A') (A") (A') (A') (A')
                 (A') (A') (A")
       Virtual   (A") (A') (A') (A') (A') (A") (A') (A') (A') (A')
                 (A") (A") (A') (A') (A') (A') (A") (A') (A') (A")
                 (A') (A') (A") (A') (A") (A') (A') (A') (A') (A')
                 (A") (A") (A") (A") (A') (A') (A') (A') (A") (A')
                 (A') (A') (A') (A") (A') (A") (A') (A") (A') (A")
                 (A') (A') (A') (A") (A') (A") (A') (A") (A') (A')
                 (A") (A') (A') (A') (A") (A') (A') (A') (A') (A')
                 (A')
 The electronic state of the initial guess is 2-A".
 Initial guess <Sx>= 0.0000 <Sy>= 0.0000 <Sz>= 0.5000 <S**2>= 0.7500 S= 0.5000
 Keep R1 and R2 ints in memory in symmetry-blocked form, NReq=15545797.
 Requested convergence on RMS density matrix=1.00D-08 within  64 cycles.
 Requested convergence on MAX density matrix=1.00D-06.
 Requested convergence on             energy=1.00D-06.
 No special actions if energy rises.
 EnCoef did   100 forward-backward iterations
 EnCoef did   100 forward-backward iterations
 EnCoef did   100 forward-backward iterations
 EnCoef did   100 forward-backward iterations
 EnCoef did    10 forward-backward iterations
 EnCoef did    61 forward-backward iterations
 EnCoef did   100 forward-backward iterations
 EnCoef did   100 forward-backward iterations
 EnCoef did   100 forward-backward iterations
 EnCoef did   100 forward-backward iterations
 EnCoef did   100 forward-backward iterations
 Rare condition: small coef for last iteration: -0.173D-14
 EnCoef did   100 forward-backward iterations
 Rare condition: small coef for last iteration:  0.000D+00
 EnCoef did   100 forward-backward iterations
 EnCoef did   100 forward-backward iterations
 Rare condition: small coef for last iteration: -0.151D-14
 EnCoef did   100 forward-backward iterations
 EnCoef did   100 forward-backward iterations
 EnCoef did   100 forward-backward iterations
 EnCoef did   100 forward-backward iterations
 EnCoef did   100 forward-backward iterations
 EnCoef did   100 forward-backward iterations
 EnCoef did   100 forward-backward iterations
 EnCoef did   100 forward-backward iterations
 EnCoef did   100 forward-backward iterations
 EnCoef did   100 forward-backward iterations
 EnCoef did   100 forward-backward iterations
 EnCoef did   100 forward-backward iterations
 Rare condition: small coef for last iteration:  0.000D+00
 Rare condition: small coef for last iteration:  0.000D+00
 Rare condition: small coef for last iteration:  0.000D+00
 Rare condition: small coef for last iteration:  0.000D+00
 Rare condition: small coef for last iteration:  0.000D+00
 Rare condition: small coef for last iteration:  0.000D+00
 Rare condition: small coef for last iteration:  0.000D+00
 Rare condition: small coef for last iteration:  0.000D+00
 Rare condition: small coef for last iteration:  0.000D+00
 Rare condition: small coef for last iteration:  0.000D+00
 Rare condition: small coef for last iteration:  0.000D+00
 Rare condition: small coef for last iteration:  0.000D+00
 Rare condition: small coef for last iteration:  0.000D+00
 Rare condition: small coef for last iteration:  0.000D+00
 Rare condition: small coef for last iteration:  0.000D+00
 >>>>>>>>>> Convergence criterion not met.
 SCF Done:  E(UB3LYP) =  -1792.39638176     A.U. after   65 cycles
            NFock= 64  Conv=0.31D-05     -V/T= 1.9988
 <Sx>= 0.0000 <Sy>= 0.0000 <Sz>= 0.5000 <S**2>= 0.7516 S= 0.5008
 <L.S>= 0.000000000000E+00
 Annihilation of the first spin contaminant:
 S**2 before annihilation     0.7516,   after     0.7500
 Keep R1 and R2 ints in memory in symmetry-blocked form, NReq=15602405.
 Gradient too large for Newton-Raphson -- use scaled steepest descent instead.
  Beta Gap=    -0.399 HL deriv= 9.25D-17 Rot set to   7.99D-01
     Minimum is close to point  2 DX=  5.56D-03 DF= -1.93D-05 DXR=  1.82D-02 DFR=  3.31D-04 which will be used.
 Gradient too large for Newton-Raphson -- use scaled steepest descent instead.
 Gradient too large for Newton-Raphson -- use scaled steepest descent instead.
 Gradient too large for Newton-Raphson -- use scaled steepest descent instead.
 Gradient too large for Newton-Raphson -- use scaled steepest descent instead.
     Accept linear search using points  1 and  2.
 Gradient too large for Newton-Raphson -- use scaled steepest descent instead.
     Accept linear search using points  3 and  4.
     Minimum is close to point  4 DX= -1.07D-01 DF= -9.27D-06 DXR=  7.13D-02 DFR=  2.60D-03 which will be used.
 Gradient too large for Newton-Raphson -- use scaled steepest descent instead.
     Minimum is close to point  3 DX=  1.17D-02 DF= -5.43D-06 DXR=  3.76D-02 DFR=  1.42D-03 which will be used.
 Gradient too large for Newton-Raphson -- use scaled steepest descent instead.
     Minimum is close to point  5 DX= -3.34D-01 DF= -5.16D-05 DXR=  8.22D-02 DFR=  6.54D-03 which will be used.
 Gradient too large for Newton-Raphson -- use scaled steepest descent instead.
     Minimum is close to point  3 DX= -1.24D-02 DF= -1.20D-05 DXR=  4.33D-02 DFR=  1.87D-03 which will be used.
 Gradient too large for Newton-Raphson -- use scaled steepest descent instead.
 Gradient too large for Newton-Raphson -- use scaled steepest descent instead.
     Accept linear search using points  1 and  2.
 Gradient too large for Newton-Raphson -- use scaled steepest descent instead.
 Gradient too large for Newton-Raphson -- use scaled steepest descent instead.
     Accept linear search using points  1 and  2.
 Gradient too large for Newton-Raphson -- use scaled steepest descent instead.
     Minimum is close to point  3 DX=  3.32D-03 DF= -3.34D-09 DXR=  8.23D-03 DFR=  6.77D-05 which will be used.
 Gradient too large for Newton-Raphson -- use scaled steepest descent instead.
     Accept linear search using points  1 and  2.
 LinEq1:  Iter=  0 NonCon=     1 RMS=3.07D-04 Max=1.55D-02 NDo=     1
 AX will form     1 AO Fock derivatives at one time.
 LinEq1:  Iter=  1 NonCon=     1 RMS=2.02D-03 Max=5.79D-02 NDo=     1
 LinEq1:  Iter=  2 NonCon=     1 RMS=8.73D-04 Max=3.16D-02 NDo=     1
 LinEq1:  Iter=  3 NonCon=     1 RMS=1.19D-03 Max=3.77D-02 NDo=     1
 LinEq1:  Iter=  4 NonCon=     1 RMS=4.71D-04 Max=6.74D-03 NDo=     1
 LinEq1:  Iter=  5 NonCon=     1 RMS=2.24D-04 Max=7.61D-03 NDo=     1
 LinEq1:  Iter=  6 NonCon=     1 RMS=9.68D-05 Max=3.33D-03 NDo=     1
 LinEq1:  Iter=  7 NonCon=     1 RMS=3.34D-05 Max=5.43D-04 NDo=     1
 LinEq1:  Iter=  8 NonCon=     1 RMS=2.06D-05 Max=3.77D-04 NDo=     1
 LinEq1:  Iter=  9 NonCon=     1 RMS=1.32D-05 Max=4.30D-04 NDo=     1
 LinEq1:  Iter= 10 NonCon=     1 RMS=2.97D-06 Max=8.87D-05 NDo=     1
 LinEq1:  Iter= 11 NonCon=     1 RMS=1.16D-06 Max=3.91D-05 NDo=     1
 LinEq1:  Iter= 12 NonCon=     1 RMS=3.31D-07 Max=9.63D-06 NDo=     1
 LinEq1:  Iter= 13 NonCon=     1 RMS=7.48D-08 Max=1.48D-06 NDo=     1
 LinEq1:  Iter= 14 NonCon=     1 RMS=2.04D-08 Max=2.92D-07 NDo=     1
 LinEq1:  Iter= 15 NonCon=     1 RMS=6.33D-09 Max=2.46D-07 NDo=     1
 LinEq1:  Iter= 16 NonCon=     1 RMS=2.41D-09 Max=7.45D-08 NDo=     1
 LinEq1:  Iter= 17 NonCon=     0 RMS=6.93D-10 Max=1.02D-08 NDo=     1
 Linear equations converged to 5.756D-09 5.756D-08 after    17 iterations.
     Accept linear search using points  1 and  2.
     Minimum is close to point  2 DX= -1.27D-02 DF= -5.79D-09 DXR=  1.28D-02 DFR=  1.67D-04 which will be used.
 LinEq1:  Iter=  0 NonCon=     1 RMS=7.20D-05 Max=4.14D-03 NDo=     1
 LinEq1:  Iter=  1 NonCon=     1 RMS=5.17D-05 Max=2.13D-03 NDo=     1
 LinEq1:  Iter=  2 NonCon=     1 RMS=3.76D-05 Max=1.60D-03 NDo=     1
 LinEq1:  Iter=  3 NonCon=     1 RMS=2.79D-05 Max=5.42D-04 NDo=     1
 LinEq1:  Iter=  4 NonCon=     1 RMS=1.13D-05 Max=4.20D-04 NDo=     1
 LinEq1:  Iter=  5 NonCon=     1 RMS=6.36D-06 Max=1.62D-04 NDo=     1
 LinEq1:  Iter=  6 NonCon=     1 RMS=3.66D-06 Max=5.48D-05 NDo=     1
 LinEq1:  Iter=  7 NonCon=     1 RMS=2.28D-06 Max=5.39D-05 NDo=     1
 LinEq1:  Iter=  8 NonCon=     1 RMS=7.14D-07 Max=1.98D-05 NDo=     1
 LinEq1:  Iter=  9 NonCon=     1 RMS=2.75D-07 Max=9.80D-06 NDo=     1
 LinEq1:  Iter= 10 NonCon=     1 RMS=8.18D-08 Max=2.28D-06 NDo=     1
 LinEq1:  Iter= 11 NonCon=     1 RMS=2.53D-08 Max=5.52D-07 NDo=     1
 LinEq1:  Iter= 12 NonCon=     1 RMS=5.46D-09 Max=9.84D-08 NDo=     1
 LinEq1:  Iter= 13 NonCon=     0 RMS=1.47D-09 Max=2.61D-08 NDo=     1
 Linear equations converged to 2.621D-09 2.621D-08 after    13 iterations.
     Minimum is close to point  2 DX=  1.57D-02 DF= -5.23D-12 DXR=  1.55D-02 DFR=  2.48D-04 which will be used.
 LinEq1:  Iter=  0 NonCon=     1 RMS=2.31D-07 Max=1.32D-05 NDo=     1
 LinEq1:  Iter=  1 NonCon=     1 RMS=5.13D-07 Max=2.27D-05 NDo=     1
 LinEq1:  Iter=  2 NonCon=     1 RMS=1.36D-07 Max=3.25D-06 NDo=     1
 LinEq1:  Iter=  3 NonCon=     1 RMS=1.52D-07 Max=5.51D-06 NDo=     1
 LinEq1:  Iter=  4 NonCon=     1 RMS=1.07D-07 Max=3.27D-06 NDo=     1
 LinEq1:  Iter=  5 NonCon=     1 RMS=4.73D-08 Max=9.69D-07 NDo=     1
 LinEq1:  Iter=  6 NonCon=     1 RMS=4.46D-08 Max=1.46D-06 NDo=     1
 LinEq1:  Iter=  7 NonCon=     1 RMS=2.02D-08 Max=4.69D-07 NDo=     1
 LinEq1:  Iter=  8 NonCon=     1 RMS=5.91D-09 Max=1.99D-07 NDo=     1
 LinEq1:  Iter=  9 NonCon=     1 RMS=2.04D-09 Max=6.68D-08 NDo=     1
 LinEq1:  Iter= 10 NonCon=     1 RMS=7.21D-10 Max=1.59D-08 NDo=     1
 LinEq1:  Iter= 11 NonCon=     1 RMS=1.70D-10 Max=3.62D-09 NDo=     1
 LinEq1:  Iter= 12 NonCon=     1 RMS=4.75D-11 Max=7.49D-10 NDo=     1
 LinEq1:  Iter= 13 NonCon=     1 RMS=1.82D-11 Max=6.50D-10 NDo=     1
 LinEq1:  Iter= 14 NonCon=     1 RMS=7.38D-12 Max=1.98D-10 NDo=     1
 LinEq1:  Iter= 15 NonCon=     0 RMS=2.29D-12 Max=5.29D-11 NDo=     1
 Linear equations converged to 1.152D-11 1.152D-10 after    15 iterations.
 Incorrect curvature in search direction -- initial direction reversed.
     Minimum is close to point 14 DX=  0.00D+00 DF=  0.00D+00 DXR=  0.00D+00 DFR=  0.00D+00 which will be used.
 LinEq1:  Iter=  0 NonCon=     1 RMS=1.36D-03 Max=7.81D-02 NDo=     1
 LinEq1:  Iter=  1 NonCon=     1 RMS=2.00D-03 Max=8.72D-02 NDo=     1
 LinEq1:  Iter=  2 NonCon=     1 RMS=6.31D-04 Max=1.62D-02 NDo=     1
 LinEq1:  Iter=  3 NonCon=     1 RMS=7.00D-04 Max=2.47D-02 NDo=     1
 LinEq1:  Iter=  4 NonCon=     1 RMS=4.24D-04 Max=9.82D-03 NDo=     1
 LinEq1:  Iter=  5 NonCon=     1 RMS=2.26D-04 Max=3.34D-03 NDo=     1
 LinEq1:  Iter=  6 NonCon=     1 RMS=2.44D-04 Max=7.92D-03 NDo=     1
 LinEq1:  Iter=  7 NonCon=     1 RMS=8.16D-05 Max=2.03D-03 NDo=     1
 LinEq1:  Iter=  8 NonCon=     1 RMS=2.29D-05 Max=6.78D-04 NDo=     1
 LinEq1:  Iter=  9 NonCon=     1 RMS=8.01D-06 Max=2.71D-04 NDo=     1
 LinEq1:  Iter= 10 NonCon=     1 RMS=3.07D-06 Max=8.05D-05 NDo=     1
 LinEq1:  Iter= 11 NonCon=     1 RMS=8.16D-07 Max=1.78D-05 NDo=     1
 LinEq1:  Iter= 12 NonCon=     1 RMS=2.19D-07 Max=2.52D-06 NDo=     1
 LinEq1:  Iter= 13 NonCon=     1 RMS=4.78D-08 Max=8.26D-07 NDo=     1
 LinEq1:  Iter= 14 NonCon=     1 RMS=1.79D-08 Max=5.03D-07 NDo=     1
 LinEq1:  Iter= 15 NonCon=     1 RMS=6.79D-09 Max=1.76D-07 NDo=     1
 LinEq1:  Iter= 16 NonCon=     0 RMS=1.74D-09 Max=3.19D-08 NDo=     1
 Linear equations converged to 5.756D-09 5.756D-08 after    16 iterations.
 Incorrect curvature in search direction -- initial direction reversed.
 Gradient too large for Newton-Raphson -- use scaled steepest descent instead.
 LinEq1:  Iter=  0 NonCon=     1 RMS=2.23D-04 Max=9.68D-03 NDo=     1
 LinEq1:  Iter=  1 NonCon=     1 RMS=2.00D-03 Max=1.09D-01 NDo=     1
 LinEq1:  Iter=  2 NonCon=     1 RMS=1.40D-03 Max=4.86D-02 NDo=     1
 LinEq1:  Iter=  3 NonCon=     1 RMS=1.27D-03 Max=2.92D-02 NDo=     1
 LinEq1:  Iter=  4 NonCon=     1 RMS=9.29D-04 Max=1.78D-02 NDo=     1
 LinEq1:  Iter=  5 NonCon=     1 RMS=7.74D-04 Max=1.28D-02 NDo=     1
 LinEq1:  Iter=  6 NonCon=     1 RMS=5.73D-04 Max=1.57D-02 NDo=     1
 LinEq1:  Iter=  7 NonCon=     1 RMS=1.85D-04 Max=5.04D-03 NDo=     1
 LinEq1:  Iter=  8 NonCon=     1 RMS=5.54D-05 Max=1.58D-03 NDo=     1
 LinEq1:  Iter=  9 NonCon=     1 RMS=2.26D-05 Max=7.74D-04 NDo=     1
 LinEq1:  Iter= 10 NonCon=     1 RMS=7.46D-06 Max=1.74D-04 NDo=     1
 LinEq1:  Iter= 11 NonCon=     1 RMS=1.85D-06 Max=4.32D-05 NDo=     1
 LinEq1:  Iter= 12 NonCon=     1 RMS=4.72D-07 Max=7.07D-06 NDo=     1
 LinEq1:  Iter= 13 NonCon=     1 RMS=1.59D-07 Max=4.47D-06 NDo=     1
 LinEq1:  Iter= 14 NonCon=     1 RMS=5.39D-08 Max=8.15D-07 NDo=     1
 LinEq1:  Iter= 15 NonCon=     1 RMS=1.43D-08 Max=2.58D-07 NDo=     1
 LinEq1:  Iter= 16 NonCon=     0 RMS=3.01D-09 Max=4.63D-08 NDo=     1
 Linear equations converged to 5.756D-09 5.756D-08 after    16 iterations.
 Incorrect curvature in search direction -- initial direction reversed.
     Minimum is close to point  3 DX=  5.71D-02 DF= -7.55D-07 DXR=  3.44D-02 DFR=  2.95D-03 which will be used.
 Gradient too large for Newton-Raphson -- use scaled steepest descent instead.
     Minimum is close to point  2 DX= -6.12D-04 DF= -1.13D-09 DXR=  3.07D-03 DFR=  9.43D-06 which will be used.
 Gradient too large for Newton-Raphson -- use scaled steepest descent instead.
 Gradient too large for Newton-Raphson -- use scaled steepest descent instead.
     Accept linear search using points  1 and  2.
 LinEq1:  Iter=  0 NonCon=     1 RMS=5.45D-04 Max=2.35D-02 NDo=     1
 LinEq1:  Iter=  1 NonCon=     1 RMS=3.39D-03 Max=1.79D-01 NDo=     1
 LinEq1:  Iter=  2 NonCon=     1 RMS=1.36D-03 Max=3.78D-02 NDo=     1
 LinEq1:  Iter=  3 NonCon=     1 RMS=6.33D-04 Max=1.10D-02 NDo=     1
 LinEq1:  Iter=  4 NonCon=     1 RMS=7.06D-04 Max=1.73D-02 NDo=     1
 LinEq1:  Iter=  5 NonCon=     1 RMS=3.62D-04 Max=8.97D-03 NDo=     1
 LinEq1:  Iter=  6 NonCon=     1 RMS=3.09D-04 Max=5.34D-03 NDo=     1
 LinEq1:  Iter=  7 NonCon=     1 RMS=2.12D-04 Max=5.72D-03 NDo=     1
 LinEq1:  Iter=  8 NonCon=     1 RMS=7.27D-05 Max=2.22D-03 NDo=     1
 LinEq1:  Iter=  9 NonCon=     1 RMS=2.25D-05 Max=6.66D-04 NDo=     1
 LinEq1:  Iter= 10 NonCon=     1 RMS=6.88D-06 Max=1.63D-04 NDo=     1
 LinEq1:  Iter= 11 NonCon=     1 RMS=2.32D-06 Max=5.21D-05 NDo=     1
 LinEq1:  Iter= 12 NonCon=     1 RMS=8.17D-07 Max=2.56D-05 NDo=     1
 LinEq1:  Iter= 13 NonCon=     1 RMS=2.41D-07 Max=3.77D-06 NDo=     1
 LinEq1:  Iter= 14 NonCon=     1 RMS=4.96D-08 Max=1.14D-06 NDo=     1
 LinEq1:  Iter= 15 NonCon=     1 RMS=1.55D-08 Max=3.83D-07 NDo=     1
 LinEq1:  Iter= 16 NonCon=     1 RMS=3.19D-09 Max=6.37D-08 NDo=     1
 LinEq1:  Iter= 17 NonCon=     0 RMS=1.19D-09 Max=4.18D-08 NDo=     1
 Linear equations converged to 5.756D-09 5.756D-08 after    17 iterations.
 Incorrect curvature in search direction -- initial direction reversed.
 Gradient too large for Newton-Raphson -- use scaled steepest descent instead.
     Minimum is close to point  3 DX= -1.16D-03 DF= -5.33D-09 DXR=  5.85D-03 DFR=  3.42D-05 which will be used.
 Gradient too large for Newton-Raphson -- use scaled steepest descent instead.
     Accept linear search using points  3 and  4.
 Gradient too large for Newton-Raphson -- use scaled steepest descent instead.
     Accept linear search using points  1 and  2.
 LinEq1:  Iter=  0 NonCon=     1 RMS=6.69D-04 Max=3.01D-02 NDo=     1
 LinEq1:  Iter=  1 NonCon=     1 RMS=3.34D-03 Max=1.86D-01 NDo=     1
 LinEq1:  Iter=  2 NonCon=     1 RMS=1.15D-03 Max=4.18D-02 NDo=     1
 LinEq1:  Iter=  3 NonCon=     1 RMS=5.01D-04 Max=9.02D-03 NDo=     1
 LinEq1:  Iter=  4 NonCon=     1 RMS=7.25D-04 Max=2.00D-02 NDo=     1
 LinEq1:  Iter=  5 NonCon=     1 RMS=2.84D-04 Max=7.55D-03 NDo=     1
 LinEq1:  Iter=  6 NonCon=     1 RMS=2.08D-04 Max=3.87D-03 NDo=     1
 LinEq1:  Iter=  7 NonCon=     1 RMS=8.53D-05 Max=2.59D-03 NDo=     1
 LinEq1:  Iter=  8 NonCon=     1 RMS=3.85D-05 Max=1.30D-03 NDo=     1
 LinEq1:  Iter=  9 NonCon=     1 RMS=1.35D-05 Max=3.23D-04 NDo=     1
 LinEq1:  Iter= 10 NonCon=     1 RMS=3.43D-06 Max=7.40D-05 NDo=     1
 LinEq1:  Iter= 11 NonCon=     1 RMS=1.18D-06 Max=4.14D-05 NDo=     1
 LinEq1:  Iter= 12 NonCon=     1 RMS=5.10D-07 Max=1.31D-05 NDo=     1
 LinEq1:  Iter= 13 NonCon=     1 RMS=1.17D-07 Max=1.56D-06 NDo=     1
 LinEq1:  Iter= 14 NonCon=     1 RMS=2.72D-08 Max=5.85D-07 NDo=     1
 LinEq1:  Iter= 15 NonCon=     1 RMS=7.42D-09 Max=1.31D-07 NDo=     1
 LinEq1:  Iter= 16 NonCon=     0 RMS=1.49D-09 Max=2.12D-08 NDo=     1
 Linear equations converged to 5.756D-09 5.756D-08 after    16 iterations.
 Incorrect curvature in search direction -- initial direction reversed.
 Gradient too large for Newton-Raphson -- use scaled steepest descent instead.
 Gradient too large for Newton-Raphson -- use scaled steepest descent instead.
     Accept linear search using points  4 and  5.
 Gradient too large for Newton-Raphson -- use scaled steepest descent instead.
     Minimum is close to point  3 DX= -7.53D-03 DF= -1.90D-07 DXR=  3.91D-02 DFR=  1.53D-03 which will be used.
 LinEq1:  Iter=  0 NonCon=     1 RMS=1.36D-03 Max=7.24D-02 NDo=     1
 LinEq1:  Iter=  1 NonCon=     1 RMS=8.62D-03 Max=3.58D-01 NDo=     1
 LinEq1:  Iter=  2 NonCon=     1 RMS=1.21D-03 Max=2.62D-02 NDo=     1
 LinEq1:  Iter=  3 NonCon=     1 RMS=1.59D-03 Max=6.00D-02 NDo=     1
 LinEq1:  Iter=  4 NonCon=     1 RMS=6.09D-04 Max=1.43D-02 NDo=     1
 LinEq1:  Iter=  5 NonCon=     1 RMS=4.44D-04 Max=1.32D-02 NDo=     1
 LinEq1:  Iter=  6 NonCon=     1 RMS=2.78D-04 Max=4.08D-03 NDo=     1
 LinEq1:  Iter=  7 NonCon=     1 RMS=7.47D-05 Max=2.33D-03 NDo=     1
 LinEq1:  Iter=  8 NonCon=     1 RMS=2.25D-05 Max=7.78D-04 NDo=     1
 LinEq1:  Iter=  9 NonCon=     1 RMS=7.46D-06 Max=1.34D-04 NDo=     1
 LinEq1:  Iter= 10 NonCon=     1 RMS=2.47D-06 Max=6.23D-05 NDo=     1
 LinEq1:  Iter= 11 NonCon=     1 RMS=7.48D-07 Max=2.50D-05 NDo=     1
 LinEq1:  Iter= 12 NonCon=     1 RMS=2.60D-07 Max=5.55D-06 NDo=     1
 LinEq1:  Iter= 13 NonCon=     1 RMS=5.60D-08 Max=7.38D-07 NDo=     1
 LinEq1:  Iter= 14 NonCon=     1 RMS=1.52D-08 Max=3.00D-07 NDo=     1
 LinEq1:  Iter= 15 NonCon=     0 RMS=3.47D-09 Max=5.62D-08 NDo=     1
 Linear equations converged to 5.756D-09 5.756D-08 after    15 iterations.
 LinEq1:  Iter=  0 NonCon=     1 RMS=7.85D-04 Max=3.97D-02 NDo=     1
 LinEq1:  Iter=  1 NonCon=     1 RMS=6.11D-03 Max=2.32D-01 NDo=     1
 LinEq1:  Iter=  2 NonCon=     1 RMS=8.89D-04 Max=1.73D-02 NDo=     1
 LinEq1:  Iter=  3 NonCon=     1 RMS=1.20D-03 Max=4.44D-02 NDo=     1
 LinEq1:  Iter=  4 NonCon=     1 RMS=5.06D-04 Max=1.24D-02 NDo=     1
 LinEq1:  Iter=  5 NonCon=     1 RMS=3.62D-04 Max=9.01D-03 NDo=     1
 LinEq1:  Iter=  6 NonCon=     1 RMS=2.40D-04 Max=3.37D-03 NDo=     1
 LinEq1:  Iter=  7 NonCon=     1 RMS=5.55D-05 Max=1.09D-03 NDo=     1
 LinEq1:  Iter=  8 NonCon=     1 RMS=1.27D-05 Max=3.44D-04 NDo=     1
 LinEq1:  Iter=  9 NonCon=     1 RMS=5.02D-06 Max=1.35D-04 NDo=     1
 LinEq1:  Iter= 10 NonCon=     1 RMS=1.81D-06 Max=3.83D-05 NDo=     1
 LinEq1:  Iter= 11 NonCon=     1 RMS=3.76D-07 Max=6.58D-06 NDo=     1
 LinEq1:  Iter= 12 NonCon=     1 RMS=1.21D-07 Max=4.07D-06 NDo=     1
 LinEq1:  Iter= 13 NonCon=     1 RMS=4.09D-08 Max=8.05D-07 NDo=     1
 LinEq1:  Iter= 14 NonCon=     1 RMS=1.13D-08 Max=2.64D-07 NDo=     1
 LinEq1:  Iter= 15 NonCon=     0 RMS=2.66D-09 Max=4.91D-08 NDo=     1
 Linear equations converged to 5.756D-09 5.756D-08 after    15 iterations.
     Accept linear search using points  1 and  2.
 Gradient too large for Newton-Raphson -- use scaled steepest descent instead.
 LinEq1:  Iter=  0 NonCon=     1 RMS=1.46D-04 Max=5.70D-03 NDo=     1
 LinEq1:  Iter=  1 NonCon=     1 RMS=1.66D-04 Max=8.30D-03 NDo=     1
 LinEq1:  Iter=  2 NonCon=     1 RMS=5.66D-04 Max=1.81D-02 NDo=     1
 LinEq1:  Iter=  3 NonCon=     1 RMS=7.42D-04 Max=1.17D-02 NDo=     1
 LinEq1:  Iter=  4 NonCon=     1 RMS=3.86D-04 Max=8.83D-03 NDo=     1
 LinEq1:  Iter=  5 NonCon=     1 RMS=1.68D-04 Max=3.83D-03 NDo=     1
 LinEq1:  Iter=  6 NonCon=     1 RMS=4.63D-05 Max=1.15D-03 NDo=     1
 LinEq1:  Iter=  7 NonCon=     1 RMS=2.98D-05 Max=9.54D-04 NDo=     1
 LinEq1:  Iter=  8 NonCon=     1 RMS=1.56D-05 Max=2.81D-04 NDo=     1
 LinEq1:  Iter=  9 NonCon=     1 RMS=4.46D-06 Max=1.17D-04 NDo=     1
 LinEq1:  Iter= 10 NonCon=     1 RMS=1.75D-06 Max=6.34D-05 NDo=     1
 LinEq1:  Iter= 11 NonCon=     1 RMS=5.11D-07 Max=9.18D-06 NDo=     1
 LinEq1:  Iter= 12 NonCon=     1 RMS=1.18D-07 Max=2.34D-06 NDo=     1
 LinEq1:  Iter= 13 NonCon=     1 RMS=4.05D-08 Max=1.42D-06 NDo=     1
 LinEq1:  Iter= 14 NonCon=     1 RMS=1.48D-08 Max=3.51D-07 NDo=     1
 LinEq1:  Iter= 15 NonCon=     1 RMS=3.47D-09 Max=6.76D-08 NDo=     1
 LinEq1:  Iter= 16 NonCon=     0 RMS=7.43D-10 Max=1.62D-08 NDo=     1
 Linear equations converged to 5.756D-09 5.756D-08 after    16 iterations.
     Accept linear search using points  1 and  2.
     Minimum is close to point  2 DX= -8.51D-02 DF= -6.42D-07 DXR=  9.31D-02 DFR=  9.62D-03 which will be used.
 LinEq1:  Iter=  0 NonCon=     1 RMS=8.77D-04 Max=5.04D-02 NDo=     1
 LinEq1:  Iter=  1 NonCon=     1 RMS=1.81D-04 Max=7.74D-03 NDo=     1
 LinEq1:  Iter=  2 NonCon=     1 RMS=1.19D-04 Max=2.68D-03 NDo=     1
 LinEq1:  Iter=  3 NonCon=     1 RMS=5.53D-05 Max=9.85D-04 NDo=     1
 LinEq1:  Iter=  4 NonCon=     1 RMS=3.09D-05 Max=5.77D-04 NDo=     1
 LinEq1:  Iter=  5 NonCon=     1 RMS=3.38D-05 Max=9.39D-04 NDo=     1
 LinEq1:  Iter=  6 NonCon=     1 RMS=1.32D-05 Max=2.71D-04 NDo=     1
 LinEq1:  Iter=  7 NonCon=     1 RMS=5.25D-06 Max=1.75D-04 NDo=     1
 LinEq1:  Iter=  8 NonCon=     1 RMS=2.00D-06 Max=5.68D-05 NDo=     1
 LinEq1:  Iter=  9 NonCon=     1 RMS=5.59D-07 Max=9.50D-06 NDo=     1
 LinEq1:  Iter= 10 NonCon=     1 RMS=1.48D-07 Max=2.83D-06 NDo=     1
 LinEq1:  Iter= 11 NonCon=     1 RMS=2.88D-08 Max=8.59D-07 NDo=     1
 LinEq1:  Iter= 12 NonCon=     1 RMS=1.12D-08 Max=4.72D-07 NDo=     1
 LinEq1:  Iter= 13 NonCon=     1 RMS=3.49D-09 Max=6.87D-08 NDo=     1
 LinEq1:  Iter= 14 NonCon=     0 RMS=8.25D-10 Max=1.65D-08 NDo=     1
 Linear equations converged to 5.756D-09 5.756D-08 after    14 iterations.
     Accept linear search using points  1 and  2.
     Minimum is close to point  2 DX= -6.97D-05 DF=  0.00D+00 DXR=  6.97D-05 DFR=  0.00D+00 which will be used.
 LinEq1:  Iter=  0 NonCon=     1 RMS=2.01D-07 Max=6.94D-06 NDo=     1
 LinEq1:  Iter=  1 NonCon=     1 RMS=1.81D-07 Max=9.24D-06 NDo=     1
 LinEq1:  Iter=  2 NonCon=     1 RMS=1.05D-06 Max=3.22D-05 NDo=     1
 LinEq1:  Iter=  3 NonCon=     1 RMS=1.00D-06 Max=2.65D-05 NDo=     1
 LinEq1:  Iter=  4 NonCon=     1 RMS=3.98D-07 Max=1.03D-05 NDo=     1
 LinEq1:  Iter=  5 NonCon=     1 RMS=3.12D-07 Max=9.19D-06 NDo=     1
 LinEq1:  Iter=  6 NonCon=     1 RMS=1.86D-07 Max=5.36D-06 NDo=     1
 LinEq1:  Iter=  7 NonCon=     1 RMS=6.22D-08 Max=1.06D-06 NDo=     1
 LinEq1:  Iter=  8 NonCon=     1 RMS=1.80D-08 Max=3.58D-07 NDo=     1
 LinEq1:  Iter=  9 NonCon=     1 RMS=4.60D-09 Max=1.27D-07 NDo=     1
 LinEq1:  Iter= 10 NonCon=     1 RMS=2.10D-09 Max=6.92D-08 NDo=     1
 LinEq1:  Iter= 11 NonCon=     1 RMS=8.48D-10 Max=1.65D-08 NDo=     1
 LinEq1:  Iter= 12 NonCon=     1 RMS=1.32D-10 Max=2.19D-09 NDo=     1
 LinEq1:  Iter= 13 NonCon=     1 RMS=2.50D-11 Max=4.50D-10 NDo=     1
 LinEq1:  Iter= 14 NonCon=     0 RMS=8.04D-12 Max=2.32D-10 NDo=     1
 Linear equations converged to 2.489D-11 2.489D-10 after    14 iterations.
 SCF Done:  E(UB3LYP) =  -1792.49894485     a.u. after   39 cycles
            Convg  =    0.5300D-08                   300 Fock formations.
              S**2 =  0.7629                  -V/T =  2.0006
 <Sx>= 0.0000 <Sy>= 0.0000 <Sz>= 0.5000 <S**2>= 0.7629 S= 0.5064
 <L.S>= 0.000000000000E+00
 Annihilation of the first spin contaminant:
 S**2 before annihilation     0.7629,   after     0.7500

 **********************************************************************

            Population analysis using the SCF density.

 **********************************************************************

 Orbital symmetries:
 Alpha Orbitals:
       Occupied  (A') (A') (A') (A") (A') (A') (A') (A') (A') (A")
                 (A') (A') (A') (A') (A") (A') (A") (A') (A') (A')
                 (A') (A") (A') (A")
       Virtual   (A') (A') (A') (A') (A") (A') (A') (A') (A') (A")
                 (A') (A") (A') (A') (A') (A") (A') (A') (A") (A')
                 (A") (A') (A') (A") (A') (A') (A') (A') (A') (A")
                 (A") (A") (A') (A') (A") (A') (A') (A') (A") (A')
                 (A') (A") (A") (A') (A') (A') (A") (A') (A') (A")
                 (A') (A') (A") (A') (A") (A') (A") (A') (A') (A")
                 (A') (A') (A') (A") (A') (A') (A') (A') (A') (A')
 Beta  Orbitals:
       Occupied  (A') (A') (A') (A') (A") (A') (A') (A') (A') (A')
                 (A") (A') (A') (A') (A") (A') (A") (A') (A') (A")
                 (A') (A") (A')
       Virtual   (A') (A') (A') (A') (A') (A") (A') (A') (A') (A')
                 (A") (A') (A") (A') (A') (A') (A") (A') (A') (A")
                 (A') (A") (A') (A') (A") (A') (A') (A') (A') (A')
                 (A") (A") (A") (A") (A') (A') (A') (A') (A') (A")
                 (A') (A') (A") (A') (A") (A") (A') (A') (A') (A")
                 (A') (A') (A') (A") (A') (A") (A') (A") (A') (A')
                 (A") (A') (A') (A') (A") (A') (A') (A') (A') (A')
                 (A')
 The electronic state is 2-A'.
 Alpha  occ. eigenvalues -- -323.45602 -39.25092 -34.48388 -34.46633 -34.46547
 Alpha  occ. eigenvalues --  -19.56299 -19.56290  -4.78655  -3.30819  -3.27168
 Alpha  occ. eigenvalues --   -3.27006  -1.45375  -1.44105  -1.03265  -1.00945
 Alpha  occ. eigenvalues --   -0.87285  -0.79377  -0.77303  -0.77049  -0.76103
 Alpha  occ. eigenvalues --   -0.75704  -0.75652  -0.75574  -0.73347
 Alpha virt. eigenvalues --   -0.50534  -0.31882  -0.30562  -0.23828  -0.20789
 Alpha virt. eigenvalues --   -0.18787  -0.04304  -0.02354   0.04473   0.12217
 Alpha virt. eigenvalues --    0.28238   0.31099   0.34363   0.37336   0.43465
 Alpha virt. eigenvalues --    0.52943   0.68530   0.74668   0.83030   0.85364
 Alpha virt. eigenvalues --    0.98589   0.98652   0.99381   1.02029   1.20696
 Alpha virt. eigenvalues --    1.27259   1.54589   1.55998   1.72579   1.73724
 Alpha virt. eigenvalues --    2.28007   2.28869   2.35913   2.36063   2.37658
 Alpha virt. eigenvalues --    2.53330   2.69649   2.71897   2.73435   3.03738
 Alpha virt. eigenvalues --    3.04317   3.47961   3.48483   3.48527   3.48749
 Alpha virt. eigenvalues --    3.49060   3.49079   3.49265   4.27248   4.30193
 Alpha virt. eigenvalues --    4.35451   4.44158   4.64950   4.67370   6.70221
 Alpha virt. eigenvalues --    6.70333   6.72083   6.76164   6.80349   8.79822
 Alpha virt. eigenvalues --    8.85378   9.08255  31.48261  42.25867  42.29524
 Alpha virt. eigenvalues --   42.44380  49.26872  49.29800 183.54981 978.80556
  Beta  occ. eigenvalues -- -323.45600 -39.23886 -34.46742 -34.45958 -34.45935
  Beta  occ. eigenvalues --  -19.56159 -19.54910  -4.76182  -3.26221  -3.25513
  Beta  occ. eigenvalues --   -3.25393  -1.45079  -1.40566  -1.03162  -0.99978
  Beta  occ. eigenvalues --   -0.85023  -0.78801  -0.76086  -0.74646  -0.74264
  Beta  occ. eigenvalues --   -0.74256  -0.72858  -0.65554
  Beta virt. eigenvalues --   -0.62886  -0.49707  -0.31799  -0.30059  -0.23779
  Beta virt. eigenvalues --   -0.20525  -0.18637  -0.04239  -0.02014   0.04584
  Beta virt. eigenvalues --    0.12373   0.28901   0.31209   0.38072   0.38708
  Beta virt. eigenvalues --    0.43586   0.53631   0.68854   0.76518   0.83699
  Beta virt. eigenvalues --    0.85861   0.99240   0.99459   1.02123   1.02384
  Beta virt. eigenvalues --    1.21085   1.28392   1.54897   1.56158   1.72653
  Beta virt. eigenvalues --    1.73620   2.28969   2.32572   2.38028   2.40165
  Beta virt. eigenvalues --    2.40453   2.53910   2.69949   2.73125   2.74193
  Beta virt. eigenvalues --    3.04276   3.05981   3.48656   3.48716   3.49905
  Beta virt. eigenvalues --    3.50078   3.50095   3.51125   3.51665   4.30306
  Beta virt. eigenvalues --    4.33377   4.36685   4.44782   4.66188   4.67487
  Beta virt. eigenvalues --    6.71348   6.71476   6.72827   6.76948   6.85151
  Beta virt. eigenvalues --    8.80969   8.86356   9.10964  31.49866  42.26773
  Beta virt. eigenvalues --   42.30302  42.46560  49.28274  49.29934 183.55586
  Beta virt. eigenvalues --  978.80676
          Condensed to atoms (all electrons):
               1          2          3          4          5          6
     1  Cu  27.632320   0.005399   0.112854  -0.005721  -0.005600  -0.000303
     2  O    0.005399   8.062299  -0.000001  -0.000003  -0.000023   0.250378
     3  O    0.112854  -0.000001   8.331009   0.244730   0.245880   0.000001
     4  H   -0.005721  -0.000003   0.244730   0.193330  -0.008965   0.000000
     5  H   -0.005600  -0.000023   0.245880  -0.008965   0.200104   0.000001
     6  H   -0.000303   0.250378   0.000001   0.000000   0.000001   0.213046
     7  H   -0.000303   0.250378   0.000001   0.000000   0.000001  -0.011280
               7
     1  Cu  -0.000303
     2  O    0.250378
     3  O    0.000001
     4  H    0.000000
     5  H    0.000001
     6  H   -0.011280
     7  H    0.213046
          Atomic-Atomic Spin Densities.
               1          2          3          4          5          6
     1  Cu   0.441617  -0.000493  -0.009079   0.000116   0.000134   0.000024
     2  O   -0.000493   0.565899   0.000001   0.000000   0.000005  -0.006416
     3  O   -0.009079   0.000001   0.056041   0.000179   0.000223   0.000000
     4  H    0.000116   0.000000   0.000179  -0.000953  -0.000057   0.000000
     5  H    0.000134   0.000005   0.000223  -0.000057  -0.001020   0.000000
     6  H    0.000024  -0.006416   0.000000   0.000000   0.000000  -0.009633
     7  H    0.000024  -0.006416   0.000000   0.000000   0.000000   0.000597
               7
     1  Cu   0.000024
     2  O   -0.006416
     3  O    0.000000
     4  H    0.000000
     5  H    0.000000
     6  H    0.000597
     7  H   -0.009633
 Mulliken charges and spin densities:
               1          2
     1  Cu   1.261354   0.432343
     2  O   -0.568426   0.552579
     3  O   -0.934474   0.047365
     4  H    0.576629  -0.000715
     5  H    0.568604  -0.000716
     6  H    0.548157  -0.015428
     7  H    0.548157  -0.015428
 Sum of Mulliken charges =   2.00000   1.00000
 Mulliken charges and spin densities with hydrogens summed into heavy atoms:
               1          2
     1  Cu   1.261354   0.432343
     2  O    0.527887   0.521723
     3  O    0.210759   0.045935
 Electronic spatial extent (au):  <R**2>=            625.7842
 Charge=              2.0000 electrons
 Dipole moment (field-independent basis, Debye):
    X=             -2.0676    Y=             -3.3668    Z=              0.0000  Tot=              3.9510
 Quadrupole moment (field-independent basis, Debye-Ang):
   XX=              4.3525   YY=             15.2443   ZZ=            -16.6692
   XY=             21.9952   XZ=              0.0000   YZ=              0.0000
 Traceless Quadrupole moment (field-independent basis, Debye-Ang):
   XX=              3.3766   YY=             14.2685   ZZ=            -17.6450
   XY=             21.9952   XZ=              0.0000   YZ=              0.0000
 Octapole moment (field-independent basis, Debye-Ang**2):
  XXX=              1.1213  YYY=            -56.5916  ZZZ=              0.0000  XYY=            -47.6707
  XXY=            -25.8175  XXZ=              0.0000  XZZ=            -11.0607  YZZ=             -8.5054
  YYZ=              0.0000  XYZ=              0.0000
 Hexadecapole moment (field-independent basis, Debye-Ang**3):
 XXXX=           -144.2676 YYYY=            -31.6206 ZZZZ=            -11.2841 XXXY=            -16.0839
 XXXZ=              0.0000 YYYX=             89.8466 YYYZ=              0.0000 ZZZX=              0.0000
 ZZZY=              0.0000 XXYY=             53.5979 XXZZ=            -32.1362 YYZZ=            -18.1310
 XXYZ=              0.0000 YYXZ=              0.0000 ZZXY=            -14.7756
 N-N= 1.451445646847D+02 E-N=-4.555667074613D+03  KE= 1.791474923880D+03
 Symmetry A'   KE= 1.561507099923D+03
 Symmetry A"   KE= 2.299678239570D+02
                          Isotropic Fermi Contact Couplings
        Atom                 a.u.       MegaHertz       Gauss      10(-4) cm-1
     1  Cu(63)            -0.13207    -156.64739     -55.89568     -52.25194
     2  O(17)              0.06223     -37.72062     -13.45965     -12.58224
     3  O(17)              0.02942     -17.83375      -6.36353      -5.94870
     4  H(1)              -0.00033      -1.48004      -0.52811      -0.49369
     5  H(1)              -0.00035      -1.57187      -0.56088      -0.52432
     6  H(1)              -0.00828     -37.02900     -13.21287     -12.35154
     7  H(1)              -0.00828     -37.02900     -13.21287     -12.35154
 --------------------------------------------------------
       Center         ----  Spin Dipole Couplings  ----
                      3XX-RR        3YY-RR        3ZZ-RR
 --------------------------------------------------------
     1   Atom        2.162829     -1.230341     -0.932488
     2   Atom        1.156236     -0.076486     -1.079751
     3   Atom        0.200153     -0.097520     -0.102633
     4   Atom        0.004302      0.006738     -0.011039
     5   Atom        0.007726      0.003584     -0.011310
     6   Atom       -0.035682     -0.043203      0.078884
     7   Atom       -0.035682     -0.043203      0.078884
 --------------------------------------------------------
                        XY            XZ            YZ
 --------------------------------------------------------
     1   Atom        0.318246      0.000000      0.000000
     2   Atom       -1.503188      0.000000      0.000000
     3   Atom        0.030375      0.000000      0.000000
     4   Atom        0.007810      0.000000      0.000000
     5   Atom       -0.006350      0.000000      0.000000
     6   Atom       -0.011185     -0.026653     -0.043556
     7   Atom       -0.011185      0.026653      0.043556
 --------------------------------------------------------


 ---------------------------------------------------------------------------------
              Anisotropic Spin Dipole Couplings in Principal Axis System
 ---------------------------------------------------------------------------------

       Atom             a.u.   MegaHertz   Gauss  10(-4) cm-1        Axes

              Baa    -1.2599  -178.383   -63.652   -59.502 -0.0926  0.9957  0.0000
     1 Cu(63) Bbb    -0.9325  -132.023   -47.109   -44.038  0.0000  0.0000  1.0000
              Bcc     2.1924   310.406   110.761   103.540  0.9957  0.0926  0.0000
 
              Baa    -1.0848    78.493    28.008    26.183  0.5571  0.8305  0.0000
     2 O(17)  Bbb    -1.0798    78.130    27.879    26.061  0.0000  0.0000  1.0000
              Bcc     2.1645  -156.623   -55.887   -52.244  0.8305 -0.5571  0.0000
 
              Baa    -0.1026     7.426     2.650     2.477  0.0000  0.0000  1.0000
     3 O(17)  Bbb    -0.1006     7.278     2.597     2.428 -0.1005  0.9949  0.0000
              Bcc     0.2032   -14.705    -5.247    -4.905  0.9949  0.1005  0.0000
 
              Baa    -0.0110    -5.890    -2.102    -1.965  0.0000  0.0000  1.0000
     4 H(1)   Bbb    -0.0024    -1.273    -0.454    -0.424  0.7596 -0.6504  0.0000
              Bcc     0.0134     7.163     2.556     2.389  0.6504  0.7596  0.0000
 
              Baa    -0.0113    -6.035    -2.153    -2.013  0.0000  0.0000  1.0000
     5 H(1)   Bbb    -0.0010    -0.546    -0.195    -0.182  0.5874  0.8093  0.0000
              Bcc     0.0123     6.581     2.348     2.195  0.8093 -0.5874  0.0000
 
              Baa    -0.0688   -36.729   -13.106   -12.251  0.5271  0.7846  0.3264
     6 H(1)   Bbb    -0.0277   -14.784    -5.275    -4.931  0.8333 -0.5526 -0.0174
              Bcc     0.0965    51.513    18.381    17.183 -0.1667 -0.2812  0.9451
 
              Baa    -0.0688   -36.729   -13.106   -12.251  0.5271  0.7846 -0.3264
     7 H(1)   Bbb    -0.0277   -14.784    -5.275    -4.931  0.8333 -0.5526  0.0174
              Bcc     0.0965    51.513    18.381    17.183  0.1667  0.2812  0.9451
 

 ---------------------------------------------------------------------------------

 Calling FoFJK, ICntrl=      2127 FMM=F ISym2X=1 I1Cent= 0 IOpClX= 1 NMat=1 NMatS=1 NMatT=0.
 ***** Axes restored to original set *****
 -------------------------------------------------------------------
 Center     Atomic                   Forces (Hartrees/Bohr)
 Number     Number              X              Y              Z
 -------------------------------------------------------------------
      1       29          -0.005662928    0.000000002   -0.000630130
      2        8           0.003801092    0.000000000   -0.072943715
      3        8          -0.066799042   -0.000000003    0.049237638
      4        1           0.036641676    0.000000000   -0.025740687
      5        1           0.035866110    0.000000000   -0.027826470
      6        1          -0.001923454    0.007084009    0.038951682
      7        1          -0.001923454   -0.007084009    0.038951682
 -------------------------------------------------------------------
 Cartesian Forces:  Max     0.072943715 RMS     0.030442980

 GradGradGradGradGradGradGradGradGradGradGradGradGradGradGradGradGradGrad
 Berny optimization.
 FormGI is forming the generalized inverse of G from B-inverse, IUseBI=4.
 Internal  Forces:  Max     0.051285197 RMS     0.020185044
 Search for a local minimum.
 Step number   1 out of a maximum of  100 on scan point     1 out of    26
 All quantities printed in internal units (Hartrees-Bohrs-Radians)
 Mixed Optimization -- RFO/linear search
 Second derivative matrix not updated -- first step.
 The second derivative matrix:
                          R1        R2        R3        R4        R5
           R1           0.00858
           R2           0.00000   0.19001
           R3           0.00000   0.00000   0.57681
           R4           0.00000   0.00000   0.00000   0.57681
           R5           0.00000   0.00000   0.00000   0.00000   0.57681
           R6           0.00000   0.00000   0.00000   0.00000   0.00000
           A1           0.00000   0.00000   0.00000   0.00000   0.00000
           A2           0.00000   0.00000   0.00000   0.00000   0.00000
           A3           0.00000   0.00000   0.00000   0.00000   0.00000
           A4           0.00000   0.00000   0.00000   0.00000   0.00000
           A5           0.00000   0.00000   0.00000   0.00000   0.00000
           A6           0.00000   0.00000   0.00000   0.00000   0.00000
           A7           0.00000   0.00000   0.00000   0.00000   0.00000
           D1           0.00000   0.00000   0.00000   0.00000   0.00000
           D2           0.00000   0.00000   0.00000   0.00000   0.00000
           D3           0.00000   0.00000   0.00000   0.00000   0.00000
           D4           0.00000   0.00000   0.00000   0.00000   0.00000
           D5           0.00000   0.00000   0.00000   0.00000   0.00000
           D6           0.00000   0.00000   0.00000   0.00000   0.00000
                          R6        A1        A2        A3        A4
           R6           0.57681
           A1           0.00000   0.25000
           A2           0.00000   0.00000   0.16000
           A3           0.00000   0.00000   0.00000   0.16000
           A4           0.00000   0.00000   0.00000   0.00000   0.16000
           A5           0.00000   0.00000   0.00000   0.00000   0.00000
           A6           0.00000   0.00000   0.00000   0.00000   0.00000
           A7           0.00000   0.00000   0.00000   0.00000   0.00000
           D1           0.00000   0.00000   0.00000   0.00000   0.00000
           D2           0.00000   0.00000   0.00000   0.00000   0.00000
           D3           0.00000   0.00000   0.00000   0.00000   0.00000
           D4           0.00000   0.00000   0.00000   0.00000   0.00000
           D5           0.00000   0.00000   0.00000   0.00000   0.00000
           D6           0.00000   0.00000   0.00000   0.00000   0.00000
                          A5        A6        A7        D1        D2
           A5           0.16000
           A6           0.00000   0.16000
           A7           0.00000   0.00000   0.16000
           D1           0.00000   0.00000   0.00000   0.00230
           D2           0.00000   0.00000   0.00000   0.00000   0.00230
           D3           0.00000   0.00000   0.00000   0.00000   0.00000
           D4           0.00000   0.00000   0.00000   0.00000   0.00000
           D5           0.00000   0.00000   0.00000   0.00000   0.00000
           D6           0.00000   0.00000   0.00000   0.00000   0.00000
                          D3        D4        D5        D6
           D3           0.03612
           D4           0.00000   0.03612
           D5           0.00000   0.00000   0.01690
           D6           0.00000   0.00000   0.00000   0.01690
 ITU=  0
     Eigenvalues ---    0.00230   0.01424   0.02039   0.03612   0.16000
     Eigenvalues ---    0.16000   0.16000   0.16000   0.19001   0.57681
     Eigenvalues ---    0.57681   0.57681   0.576811000.000001000.00000
     Eigenvalues --- 1000.000001000.000001000.000001000.00000
 RFO step:  Lambda=-3.53998073D-02 EMin= 2.30000000D-03
 Linear search not attempted -- first point.
 Maximum step size (   0.300) exceeded in Quadratic search.
    -- Step size scaled by   0.719
 Iteration  1 RMS(Cart)=  0.07146530 RMS(Int)=  0.00332051
 Iteration  2 RMS(Cart)=  0.00322145 RMS(Int)=  0.00051603
 Iteration  3 RMS(Cart)=  0.00000400 RMS(Int)=  0.00051602
 Iteration  4 RMS(Cart)=  0.00000000 RMS(Int)=  0.00051602
 Iteration  1 RMS(Cart)=  0.00000000 RMS(Int)=  0.00000000
 ClnCor:  largest displacement from symmetrization is 1.83D-05 for atom     7.
 Variable       Old X    -DE/DX   Delta X   Delta X   Delta X     New X
                                 (Linear)    (Quad)   (Total)
    R1        7.34197   0.00494   0.00000   0.00000   0.00000   7.34197
    R2        3.56225   0.00719   0.00000   0.02294   0.02294   3.58519
    R3        1.79524   0.01966   0.00000   0.02310   0.02310   1.81834
    R4        1.79524   0.01966   0.00000   0.02310   0.02310   1.81834
    R5        1.79524   0.01498   0.00000   0.01760   0.01760   1.81284
    R6        1.79524   0.01303   0.00000   0.01531   0.01531   1.81055
    A1        2.18166   0.00309   0.00000   0.00000   0.00000   2.18166
    A2        1.91063   0.02056   0.00000   0.07568   0.07560   1.98623
    A3        1.91063   0.02056   0.00000   0.07568   0.07560   1.98623
    A4        2.46192  -0.04112   0.00000  -0.15136  -0.15142   2.31049
    A5        1.91063   0.02450   0.00000   0.09019   0.09019   2.00082
    A6        1.91063   0.02678   0.00000   0.09859   0.09859   2.00922
    A7        2.46192  -0.05129   0.00000  -0.18878  -0.18878   2.27314
    D1        1.57080   0.00060   0.00000   0.00867   0.01004   1.58084
    D2       -1.57080  -0.00060   0.00000  -0.00867  -0.01004  -1.58084
    D3        3.14159   0.00000   0.00000   0.00000   0.00000   3.14159
    D4        0.00000   0.00000   0.00000   0.00000   0.00000   0.00000
    D5        3.14159  -0.00179   0.00000  -0.02600  -0.02488   3.11671
    D6        3.14159   0.00000   0.00000   0.00000   0.00000   3.14159
         Item               Value     Threshold  Converged?
 Maximum Force            0.051285     0.000450     NO 
 RMS     Force            0.021292     0.000300     NO 
 Maximum Displacement     0.173417     0.001800     NO 
 RMS     Displacement     0.071988     0.001200     NO 
 Predicted change in Energy=-1.791202D-02
 GradGradGradGradGradGradGradGradGradGradGradGradGradGradGradGradGradGrad

                          Input orientation:                          
 ---------------------------------------------------------------------
 Center     Atomic      Atomic             Coordinates (Angstroms)
 Number     Number       Type             X           Y           Z
 ---------------------------------------------------------------------
      1         29           0       -0.027233    0.000000    0.000653
      2          8           0       -0.009761    0.000000    3.885817
      3          8           0        1.521953    0.000000   -1.094514
      4          1           0        1.345173    0.000000   -2.037399
      5          1           0        2.354832    0.000000   -0.620939
      6          1           0       -0.016857    0.880335    4.274195
      7          1           0       -0.016857   -0.880335    4.274195
 ---------------------------------------------------------------------
                    Distance matrix (angstroms):
                    1          2          3          4          5
     1  Cu   0.000000
     2  O    3.885203   0.000000
     3  O    1.897200   5.210551   0.000000
     4  H    2.457063   6.076211   0.959314   0.000000
     5  H    2.461831   5.089415   0.958103   1.739475   0.000000
     6  H    4.363285   0.962225   5.653845   6.516620   5.510194
     7  H    4.363285   0.962225   5.653845   6.516620   5.510194
                    6          7
     6  H    0.000000
     7  H    1.760669   0.000000
 Stoichiometry    CuH4O2(2+,2)
 Framework group  CS[SG(CuH2O2),X(H2)]
 Deg. of freedom    10
 Full point group                 CS      NOp   2
 Largest Abelian subgroup         CS      NOp   2
 Largest concise Abelian subgroup CS      NOp   2
                         Standard orientation:                         
 ---------------------------------------------------------------------
 Center     Atomic      Atomic             Coordinates (Angstroms)
 Number     Number       Type             X           Y           Z
 ---------------------------------------------------------------------
      1         29           0        0.000000    0.664951    0.000000
      2          8           0       -1.929506   -2.707261    0.000000
      3          8           0        1.889323    0.837649    0.000000
      4          1           0        2.208222    1.742407    0.000000
      5          1           0        2.373327    0.010786    0.000000
      6          1           0       -2.130044   -3.039935    0.880335
      7          1           0       -2.130044   -3.039935   -0.880335
 ---------------------------------------------------------------------
 Rotational constants (GHZ):     16.3344813      1.7673774      1.6106993
 Standard basis: 6-311G(d) (5D, 7F)
 There are    74 symmetry adapted cartesian basis functions of A'  symmetry.
 There are    28 symmetry adapted cartesian basis functions of A"  symmetry.
 There are    67 symmetry adapted basis functions of A'  symmetry.
 There are    27 symmetry adapted basis functions of A"  symmetry.
    94 basis functions,   165 primitive gaussians,   102 cartesian basis functions
    24 alpha electrons       23 beta electrons
       nuclear repulsion energy       143.9392115586 Hartrees.
 NAtoms=    7 NActive=    7 NUniq=    6 SFac= 1.36D+00 NAtFMM=   60 NAOKFM=F Big=F
 Integral buffers will be    131072 words long.
 Raffenetti 2 integral format.
 Two-electron integral symmetry is turned on.
 One-electron integrals computed using PRISM.
 NBasis=    94 RedAO= T EigKep=  1.33D-02  NBF=    67    27
 NBsUse=    94 1.00D-06 EigRej= -1.00D+00 NBFU=    67    27
 Initial guess from the checkpoint file:  "pescuh2o2.chk"
 B after Tr=     0.000000    0.000000    0.000000
         Rot=    0.999993    0.000000    0.000000    0.003736 Ang=   0.43 deg.
 Initial guess orbital symmetries:
 Alpha Orbitals:
       Occupied  (A') (A') (A') (A") (A') (A') (A') (A') (A') (A")
                 (A') (A') (A') (A') (A") (A') (A") (A') (A') (A')
                 (A') (A") (A') (A")
       Virtual   (A') (A') (A') (A') (A') (A') (A') (A') (A') (A')
                 (A') (A') (A') (A') (A') (A') (A') (A') (A') (A')
                 (A') (A') (A') (A') (A') (A') (A') (A') (A') (A')
                 (A') (A') (A') (A') (A') (A') (A') (A') (A') (A')
                 (A') (A') (A') (A') (A') (A') (A') (A') (A') (A")
                 (A") (A") (A") (A") (A") (A") (A") (A") (A") (A")
                 (A") (A") (A") (A") (A") (A") (A") (A") (A") (A")
 Beta  Orbitals:
       Occupied  (A') (A') (A') (A') (A") (A') (A') (A') (A') (A')
                 (A") (A') (A') (A') (A") (A') (A") (A') (A') (A")
                 (A') (A") (A')
       Virtual   (A') (A') (A') (A') (A') (A') (A') (A') (A') (A')
                 (A') (A') (A') (A') (A') (A') (A') (A') (A') (A')
                 (A') (A') (A') (A') (A') (A') (A') (A') (A') (A')
                 (A') (A') (A') (A') (A') (A') (A') (A') (A') (A')
                 (A') (A') (A') (A') (A') (A') (A') (A') (A') (A')
                 (A") (A") (A") (A") (A") (A") (A") (A") (A") (A")
                 (A") (A") (A") (A") (A") (A") (A") (A") (A") (A")
                 (A")
 Initial guess <Sx>= 0.0000 <Sy>= 0.0000 <Sz>= 0.5000 <S**2>= 0.7630 S= 0.5065
 ExpMin= 4.08D-02 ExpMax= 3.37D+05 ExpMxC= 1.14D+04 IAcc=2 IRadAn=         4 AccDes= 0.00D+00
 Harris functional with IExCor=  402 and IRadAn=       4 diagonalized for initial guess.
 HarFok:  IExCor=  402 AccDes= 0.00D+00 IRadAn=         4 IDoV= 1 UseB2=F ITyADJ=14
 ICtDFT=  3500011 ScaDFX=  1.000000  1.000000  1.000000  1.000000
 FoFCou: FMM=F IPFlag=           0 FMFlag=      100000 FMFlg1=           0
         NFxFlg=           0 DoJE=T BraDBF=F KetDBF=T FulRan=T
         wScrn=  0.000000 ICntrl=     500 IOpCl=  0 I1Cent=   200000004 NGrid=           0
         NMat0=    1 NMatS0=      1 NMatT0=    0 NMatD0=    1 NMtDS0=    0 NMtDT0=    0
 Petite list used in FoFCou.
 Keep R1 and R2 ints in memory in symmetry-blocked form, NReq=15545797.
 Requested convergence on RMS density matrix=1.00D-08 within  64 cycles.
 Requested convergence on MAX density matrix=1.00D-06.
 Requested convergence on             energy=1.00D-06.
 No special actions if energy rises.
 EnCoef did     3 forward-backward iterations
 SCF Done:  E(UB3LYP) =  -1792.52163202     A.U. after   16 cycles
            NFock= 16  Conv=0.69D-08     -V/T= 2.0006
 <Sx>= 0.0000 <Sy>= 0.0000 <Sz>= 0.5000 <S**2>= 0.7622 S= 0.5061
 <L.S>= 0.000000000000E+00
 Annihilation of the first spin contaminant:
 S**2 before annihilation     0.7622,   after     0.7500
 QCSCF skips out because SCF is already converged.
 Calling FoFJK, ICntrl=      2127 FMM=F ISym2X=1 I1Cent= 0 IOpClX= 1 NMat=1 NMatS=1 NMatT=0.
 ***** Axes restored to original set *****
 -------------------------------------------------------------------
 Center     Atomic                   Forces (Hartrees/Bohr)
 Number     Number              X              Y              Z
 -------------------------------------------------------------------
      1       29          -0.000139403    0.000000000   -0.003935066
      2        8           0.003750192    0.000000000   -0.057792054
      3        8          -0.049504396    0.000000000    0.035553683
      4        1           0.028944469    0.000000000   -0.011790415
      5        1           0.020741448    0.000000000   -0.024440478
      6        1          -0.001896155   -0.003795999    0.031202165
      7        1          -0.001896155    0.003795999    0.031202165
 -------------------------------------------------------------------
 Cartesian Forces:  Max     0.057792054 RMS     0.022961397

 GradGradGradGradGradGradGradGradGradGradGradGradGradGradGradGradGradGrad
 Berny optimization.
 Using GEDIIS/GDIIS optimizer.
 FormGI is forming the generalized inverse of G from B-inverse, IUseBI=4.
 Internal  Forces:  Max     0.037525176 RMS     0.015189224
 Search for a local minimum.
 Step number   2 out of a maximum of  100 on scan point     1 out of    26
 All quantities printed in internal units (Hartrees-Bohrs-Radians)
 Mixed Optimization -- RFO/linear search
 Update second derivatives using D2CorX and points    1    2
 DE= -2.27D-02 DEPred=-1.79D-02 R= 1.27D+00
 TightC=F SS=  1.41D+00  RLast= 3.01D-01 DXNew= 5.0454D-01 9.0403D-01
 Trust test= 1.27D+00 RLast= 3.01D-01 DXMaxT set to 5.05D-01
 The second derivative matrix:
                          R1        R2        R3        R4        R5
           R1           0.00860
           R2           0.00039   0.19622
           R3           0.00063   0.00805   0.58397
           R4           0.00063   0.00805   0.00716   0.58397
           R5           0.00052   0.00694   0.00674   0.00674   0.58301
           R6           0.00042   0.00543   0.00490   0.00490   0.00460
           A1           0.00001   0.00021   0.00034   0.00034   0.00028
           A2           0.00014  -0.00085  -0.00647  -0.00647  -0.00464
           A3           0.00014  -0.00086  -0.00649  -0.00649  -0.00466
           A4          -0.00028   0.00176   0.01305   0.01305   0.00938
           A5           0.00039   0.00315  -0.00110  -0.00110  -0.00005
           A6           0.00043   0.00368  -0.00083  -0.00083   0.00025
           A7          -0.00082  -0.00682   0.00193   0.00193  -0.00020
           D1          -0.00002  -0.00042  -0.00068  -0.00068  -0.00056
           D2           0.00002   0.00042   0.00068   0.00068   0.00056
           D3           0.00000   0.00000   0.00000   0.00000   0.00000
           D4           0.00000   0.00000   0.00000   0.00000   0.00000
           D5          -0.00003  -0.00036  -0.00040  -0.00040  -0.00036
           D6           0.00000   0.00000   0.00000   0.00000   0.00000
                          R6        A1        A2        A3        A4
           R6           0.58017
           A1           0.00023   0.25001
           A2          -0.00425   0.00008   0.15125
           A3          -0.00427   0.00007  -0.00876   0.15123
           A4           0.00858  -0.00015   0.01756   0.01757   0.12479
           A5          -0.00063   0.00021  -0.00897  -0.00899   0.01803
           A6          -0.00044   0.00023  -0.00972  -0.00974   0.01955
           A7           0.00107  -0.00044   0.01870   0.01873  -0.03758
           D1          -0.00046  -0.00001  -0.00017  -0.00016   0.00033
           D2           0.00046   0.00001   0.00017   0.00016  -0.00033
           D3           0.00000   0.00000   0.00000   0.00000   0.00000
           D4           0.00000   0.00000   0.00000   0.00000   0.00000
           D5          -0.00027  -0.00001   0.00017   0.00017  -0.00034
           D6           0.00000   0.00000   0.00000   0.00000   0.00000
                          A5        A6        A7        D1        D2
           A5           0.15336
           A6          -0.00703   0.15258
           A7           0.01366   0.01445   0.13189
           D1          -0.00043  -0.00048   0.00091   0.00232
           D2           0.00043   0.00048  -0.00091  -0.00002   0.00232
           D3           0.00000   0.00000   0.00000   0.00000   0.00000
           D4           0.00000   0.00000   0.00000   0.00000   0.00000
           D5          -0.00007  -0.00009   0.00017   0.00003  -0.00003
           D6           0.00000   0.00000   0.00000   0.00000   0.00000
                          D3        D4        D5        D6
           D3           0.03612
           D4           0.00000   0.03612
           D5           0.00000   0.00000   0.01692
           D6           0.00000   0.00000   0.00000   0.01690
 ITU=  1  0
 Use linear search instead of GDIIS.
 Linear search step of   0.600 exceeds DXMaxT=   0.505 but not scaled.
 Quartic linear search produced a step of  2.00000.
 Iteration  1 RMS(Cart)=  0.10885583 RMS(Int)=  0.04141509
 Iteration  2 RMS(Cart)=  0.04233783 RMS(Int)=  0.00287886
 Iteration  3 RMS(Cart)=  0.00122633 RMS(Int)=  0.00257710
 Iteration  4 RMS(Cart)=  0.00000089 RMS(Int)=  0.00257710
 Iteration  1 RMS(Cart)=  0.00000000 RMS(Int)=  0.00000000
 ClnCor:  largest displacement from symmetrization is 4.07D-04 for atom     7.
 Variable       Old X    -DE/DX   Delta X   Delta X   Delta X     New X
                                 (Linear)    (Quad)   (Total)
    R1        7.34197   0.00460   0.00000   0.00000   0.00000   7.34197
    R2        3.58519   0.00057   0.04588   0.00000   0.04588   3.63107
    R3        1.81834   0.00913   0.04620   0.00000   0.04630   1.86464
    R4        1.81834   0.00913   0.04620   0.00000   0.04630   1.86464
    R5        1.81284   0.00625   0.03520   0.00000   0.03520   1.84804
    R6        1.81055   0.00597   0.03063   0.00000   0.03063   1.84118
    A1        2.18166   0.00290   0.00000   0.00000   0.00000   2.18166
    A2        1.98623   0.01822   0.15120   0.00000   0.15071   2.13694
    A3        1.98623   0.01823   0.15120   0.00000   0.15071   2.13694
    A4        2.31049  -0.03648  -0.30285   0.00000  -0.30327   2.00722
    A5        2.00082   0.01803   0.18038   0.00000   0.18038   2.18120
    A6        2.00922   0.01950   0.19717   0.00000   0.19717   2.20639
    A7        2.27314  -0.03753  -0.37755   0.00000  -0.37755   1.89559
    D1        1.58084   0.00097   0.02009   0.00000   0.02640   1.60724
    D2       -1.58084  -0.00097  -0.02009   0.00000  -0.02640  -1.60724
    D3        3.14159   0.00000   0.00000   0.00000   0.00000   3.14159
    D4        0.00000   0.00000   0.00000   0.00000   0.00000   0.00000
    D5        3.11671  -0.00137  -0.04977   0.00000  -0.04299   3.07372
    D6        3.14159   0.00000   0.00000   0.00000   0.00000   3.14159
         Item               Value     Threshold  Converged?
 Maximum Force            0.037525     0.000450     NO 
 RMS     Force            0.016004     0.000300     NO 
 Maximum Displacement     0.379694     0.001800     NO 
 RMS     Displacement     0.146958     0.001200     NO 
 Predicted change in Energy=-2.749883D-02
 GradGradGradGradGradGradGradGradGradGradGradGradGradGradGradGradGradGrad

                          Input orientation:                          
 ---------------------------------------------------------------------
 Center     Atomic      Atomic             Coordinates (Angstroms)
 Number     Number       Type             X           Y           Z
 ---------------------------------------------------------------------
      1         29           0       -0.078048    0.000000    0.002183
      2          8           0       -0.027499    0.000000    3.887057
      3          8           0        1.481462    0.000000   -1.120316
      4          1           0        1.468289    0.000000   -2.098170
      5          1           0        2.408936    0.000000   -0.821864
      6          1           0       -0.050955    0.832219    4.416665
      7          1           0       -0.050955   -0.832219    4.416665
 ---------------------------------------------------------------------
                    Distance matrix (angstroms):
                    1          2          3          4          5
     1  Cu   0.000000
     2  O    3.885203   0.000000
     3  O    1.921478   5.229795   0.000000
     4  H    2.608187   6.169305   0.977942   0.000000
     5  H    2.619951   5.301902   0.974310   1.585488   0.000000
     6  H    4.492323   0.986723   5.805088   6.741198   5.846866
     7  H    4.492323   0.986723   5.805088   6.741198   5.846866
                    6          7
     6  H    0.000000
     7  H    1.664439   0.000000
 Stoichiometry    CuH4O2(2+,2)
 Framework group  CS[SG(CuH2O2),X(H2)]
 Deg. of freedom    10
 Full point group                 CS      NOp   2
 Largest Abelian subgroup         CS      NOp   2
 Largest concise Abelian subgroup CS      NOp   2
                         Standard orientation:                         
 ---------------------------------------------------------------------
 Center     Atomic      Atomic             Coordinates (Angstroms)
 Number     Number       Type             X           Y           Z
 ---------------------------------------------------------------------
      1         29           0        0.000000    0.668227    0.000000
      2          8           0       -1.969969   -2.680508    0.000000
      3          8           0        1.915468    0.820083    0.000000
      4          1           0        2.410939    1.663219    0.000000
      5          1           0        2.554028    0.084201    0.000000
      6          1           0       -2.264479   -3.121300    0.832219
      7          1           0       -2.264479   -3.121300   -0.832219
 ---------------------------------------------------------------------
 Rotational constants (GHZ):     15.8747879      1.7421626      1.5836126
 Standard basis: 6-311G(d) (5D, 7F)
 There are    74 symmetry adapted cartesian basis functions of A'  symmetry.
 There are    28 symmetry adapted cartesian basis functions of A"  symmetry.
 There are    67 symmetry adapted basis functions of A'  symmetry.
 There are    27 symmetry adapted basis functions of A"  symmetry.
    94 basis functions,   165 primitive gaussians,   102 cartesian basis functions
    24 alpha electrons       23 beta electrons
       nuclear repulsion energy       141.7290782427 Hartrees.
 NAtoms=    7 NActive=    7 NUniq=    6 SFac= 1.36D+00 NAtFMM=   60 NAOKFM=F Big=F
 Integral buffers will be    131072 words long.
 Raffenetti 2 integral format.
 Two-electron integral symmetry is turned on.
 One-electron integrals computed using PRISM.
 NBasis=    94 RedAO= T EigKep=  1.33D-02  NBF=    67    27
 NBsUse=    94 1.00D-06 EigRej= -1.00D+00 NBFU=    67    27
 Initial guess from the checkpoint file:  "pescuh2o2.chk"
 B after Tr=     0.000000    0.000000    0.000000
         Rot=    0.999974    0.000000    0.000000    0.007152 Ang=   0.82 deg.
 Initial guess orbital symmetries:
 Alpha Orbitals:
       Occupied  (A') (A') (A') (A") (A') (A') (A') (A') (A') (A")
                 (A') (A') (A') (A') (A") (A') (A") (A') (A') (A')
                 (A') (A") (A') (A")
       Virtual   (A') (A') (A') (A') (A') (A') (A') (A') (A') (A')
                 (A') (A') (A') (A') (A') (A') (A') (A') (A') (A')
                 (A') (A') (A') (A') (A') (A') (A') (A') (A') (A')
                 (A') (A') (A') (A') (A') (A') (A') (A') (A') (A')
                 (A') (A') (A') (A') (A') (A') (A') (A') (A') (A")
                 (A") (A") (A") (A") (A") (A") (A") (A") (A") (A")
                 (A") (A") (A") (A") (A") (A") (A") (A") (A") (A")
 Beta  Orbitals:
       Occupied  (A') (A') (A') (A') (A") (A') (A') (A') (A') (A')
                 (A") (A') (A') (A') (A") (A') (A") (A') (A') (A")
                 (A') (A") (A')
       Virtual   (A') (A') (A') (A') (A') (A') (A') (A') (A') (A')
                 (A') (A') (A') (A') (A') (A') (A') (A') (A') (A')
                 (A') (A') (A') (A') (A') (A') (A') (A') (A') (A')
                 (A') (A') (A') (A') (A') (A') (A') (A') (A') (A')
                 (A') (A') (A') (A') (A') (A') (A') (A') (A') (A')
                 (A") (A") (A") (A") (A") (A") (A") (A") (A") (A")
                 (A") (A") (A") (A") (A") (A") (A") (A") (A") (A")
                 (A")
 Initial guess <Sx>= 0.0000 <Sy>= 0.0000 <Sz>= 0.5000 <S**2>= 0.7623 S= 0.5062
 ExpMin= 4.08D-02 ExpMax= 3.37D+05 ExpMxC= 1.14D+04 IAcc=2 IRadAn=         4 AccDes= 0.00D+00
 Harris functional with IExCor=  402 and IRadAn=       4 diagonalized for initial guess.
 HarFok:  IExCor=  402 AccDes= 0.00D+00 IRadAn=         4 IDoV= 1 UseB2=F ITyADJ=14
 ICtDFT=  3500011 ScaDFX=  1.000000  1.000000  1.000000  1.000000
 FoFCou: FMM=F IPFlag=           0 FMFlag=      100000 FMFlg1=           0
         NFxFlg=           0 DoJE=T BraDBF=F KetDBF=T FulRan=T
         wScrn=  0.000000 ICntrl=     500 IOpCl=  0 I1Cent=   200000004 NGrid=           0
         NMat0=    1 NMatS0=      1 NMatT0=    0 NMatD0=    1 NMtDS0=    0 NMtDT0=    0
 Petite list used in FoFCou.
 Keep R1 and R2 ints in memory in symmetry-blocked form, NReq=15545797.
 Requested convergence on RMS density matrix=1.00D-08 within  64 cycles.
 Requested convergence on MAX density matrix=1.00D-06.
 Requested convergence on             energy=1.00D-06.
 No special actions if energy rises.
 SCF Done:  E(UB3LYP) =  -1792.54480767     A.U. after   17 cycles
            NFock= 17  Conv=0.87D-08     -V/T= 2.0007
 <Sx>= 0.0000 <Sy>= 0.0000 <Sz>= 0.5000 <S**2>= 0.7609 S= 0.5055
 <L.S>= 0.000000000000E+00
 Annihilation of the first spin contaminant:
 S**2 before annihilation     0.7609,   after     0.7500
 QCSCF skips out because SCF is already converged.
 Calling FoFJK, ICntrl=      2127 FMM=F ISym2X=1 I1Cent= 0 IOpClX= 1 NMat=1 NMatS=1 NMatT=0.
 ***** Axes restored to original set *****
 -------------------------------------------------------------------
 Center     Atomic                   Forces (Hartrees/Bohr)
 Number     Number              X              Y              Z
 -------------------------------------------------------------------
      1       29           0.007527748    0.000000000   -0.008904025
      2        8           0.001655858    0.000000000   -0.007803092
      3        8          -0.001998438    0.000000000   -0.001502203
      4        1          -0.000840827    0.000000000    0.007015243
      5        1          -0.004640602    0.000000000   -0.000851306
      6        1          -0.000851869   -0.013349632    0.006022691
      7        1          -0.000851869    0.013349632    0.006022691
 -------------------------------------------------------------------
 Cartesian Forces:  Max     0.013349632 RMS     0.005808172

 GradGradGradGradGradGradGradGradGradGradGradGradGradGradGradGradGradGrad
 Berny optimization.
 Using GEDIIS/GDIIS optimizer.
 FormGI is forming the generalized inverse of G from B-inverse, IUseBI=4.
 Internal  Forces:  Max     0.015236863 RMS     0.005850684
 Search for a local minimum.
 Step number   3 out of a maximum of  100 on scan point     1 out of    26
 All quantities printed in internal units (Hartrees-Bohrs-Radians)
 Mixed Optimization -- RFO/linear search
 Update second derivatives using D2CorX and points    2    3
 The second derivative matrix:
                          R1        R2        R3        R4        R5
           R1           0.00858
           R2           0.00010   0.19129
           R3           0.00018   0.00079   0.57352
           R4           0.00018   0.00079  -0.00329   0.57352
           R5           0.00014   0.00068  -0.00238  -0.00238   0.57511
           R6           0.00012   0.00034  -0.00252  -0.00252  -0.00183
           A1           0.00000   0.00012   0.00021   0.00021   0.00016
           A2           0.00012  -0.00055  -0.00530  -0.00530  -0.00396
           A3           0.00012  -0.00056  -0.00530  -0.00530  -0.00397
           A4          -0.00023   0.00125   0.01085   0.01085   0.00813
           A5           0.00020   0.00094  -0.00338  -0.00338  -0.00245
           A6           0.00021   0.00081  -0.00411  -0.00411  -0.00300
           A7          -0.00042  -0.00175   0.00750   0.00750   0.00545
           D1           0.00000   0.00003   0.00006   0.00006   0.00004
           D2           0.00000  -0.00003  -0.00006  -0.00006  -0.00004
           D3           0.00000   0.00000   0.00000   0.00000   0.00000
           D4           0.00000   0.00000   0.00000   0.00000   0.00000
[...]
           A5         125.13607 125.07866 125.04918 125.04569 125.08703
           A6         125.11152 125.09062 125.05030 125.04505 125.08619
           A7         108.95087 108.86098 108.78186 108.68027 108.59295
           D1         -76.04711 -77.03445 -78.43614 -80.20761 -82.01908
           D2          76.15321  76.89214  78.41142  80.23484  82.00358
           D3          84.34458  83.74884  83.27613  82.92973  82.93526
           D4         -84.25511 -83.71301 -83.25884 -82.95242 -82.90810
           D5         155.81158 157.30109 159.85393 163.02064 166.18956
           D6        -170.15628-169.18075-168.38437-167.83077-167.81011
                          21        22        23        24        25
     Eigenvalues --  **************************************************
           R1           1.88520   1.78520   1.68520   1.58520   1.48520
           R2           1.86161   1.86305   1.86485   1.86708   1.87011
           R3           0.97631   0.97799   0.98031   0.98355   0.98816
           R4           0.97631   0.97799   0.98031   0.98355   0.98816
           R5           0.97668   0.97649   0.97623   0.97592   0.97560
           R6           0.97668   0.97648   0.97623   0.97592   0.97560
           A1         125.00000 125.00000 125.00000 125.00000 125.00000
           A2         125.12494 125.50015 125.88774 126.37626 126.97886
           A3         125.12517 125.46432 125.89326 126.38458 127.00324
           A4         108.60250 108.14938 107.46201 106.51287 105.22846
           A5         125.17983 125.28684 125.38610 125.46931 125.53995
           A6         125.17623 125.29373 125.38666 125.47064 125.54291
           A7         108.52332 108.49073 108.46937 108.48307 108.52710
           D1         -83.16539 -83.98669 -84.38289 -84.43107 -84.20055
           D2          83.17740  83.94319  84.38262  84.46691  84.09331
           D3          83.23783  83.91734  84.46953  85.13662  86.00283
           D4         -83.25335 -83.76785 -84.39293 -85.13680 -85.99488
           D5         168.24300 169.67501 170.47636 170.69517 170.33272
           D6        -168.38298-169.42293-170.44282-171.65834-173.13870
                          26
     Eigenvalues --  **********
           R1           1.38520
           R2           1.87488
           R3           0.99499
           R4           0.99499
           R5           0.97533
           R6           0.97533
           A1         125.00000
           A2         127.76372
           A3         127.76169
           A4         103.49980
           A5         125.59910
           A6         125.59905
           A7         108.58523
           D1         -83.41417
           D2          83.38739
           D3          87.01934
           D4         -87.01436
           D5         169.30190
           D6        -174.88428
                          Input orientation:                          
 ---------------------------------------------------------------------
 Center     Atomic      Atomic             Coordinates (Angstroms)
 Number     Number       Type             X           Y           Z
 ---------------------------------------------------------------------
      1         29           0        0.654678    0.837600    1.382468
      2          8           0        0.292610    0.230652    2.573816
      3          8           0        1.196124   -0.070391   -0.165941
      4          1           0        0.602701   -0.412817   -0.860105
      5          1           0        2.107818   -0.350023   -0.370621
      6          1           0       -0.593868   -0.148358    2.819797
      7          1           0        0.891185   -0.086663    3.302527
 ---------------------------------------------------------------------
                    Distance matrix (angstroms):
                    1          2          3          4          5
     1  Cu   0.000000
     2  O    1.385203   0.000000
     3  O    1.874882   2.900557   0.000000
     4  H    2.568147   3.507424   0.975331   0.000000
     5  H    2.568148   3.507402   0.975333   1.583955   0.000000
     6  H    2.144037   0.994987   3.482066   3.878582   4.185516
     7  H    2.144021   0.994988   3.481885   4.185344   3.878346
                    6          7
     6  H    0.000000
     7  H    1.562759   0.000000
 Stoichiometry    CuH4O2(2+,2)
 Framework group  C1[X(CuH4O2)]
 Deg. of freedom    15
 Full point group                 C1      NOp   1
 Largest Abelian subgroup         C1      NOp   1
 Largest concise Abelian subgroup C1      NOp   1
                         Standard orientation:                         
 ---------------------------------------------------------------------
 Center     Atomic      Atomic             Coordinates (Angstroms)
 Number     Number       Type             X           Y           Z
 ---------------------------------------------------------------------
      1         29           0       -0.130230    0.320095    0.000016
      2          8           0       -1.266651   -0.471950   -0.000017
      3          8           0        1.630181   -0.324992   -0.000022
      4          1           0        2.149075   -0.559018   -0.792014
      5          1           0        2.149058   -0.559159    0.791942
      6          1           0       -1.714971   -0.894336   -0.781425
      7          1           0       -1.714732   -0.894697    0.781334
 ---------------------------------------------------------------------
 Rotational constants (GHZ):     31.1442119      5.8120518      5.1469069

 **********************************************************************

            Population analysis using the SCF density.

 **********************************************************************

 Orbital symmetries:
 Alpha Orbitals:
       Occupied  (A) (A) (A) (A) (A) (A) (A) (A) (A) (A) (A) (A)
                 (A) (A) (A) (A) (A) (A) (A) (A) (A) (A) (A) (A)
       Virtual   (A) (A) (A) (A) (A) (A) (A) (A) (A) (A) (A) (A)
                 (A) (A) (A) (A) (A) (A) (A) (A) (A) (A) (A) (A)
                 (A) (A) (A) (A) (A) (A) (A) (A) (A) (A) (A) (A)
                 (A) (A) (A) (A) (A) (A) (A) (A) (A) (A) (A) (A)
                 (A) (A) (A) (A) (A) (A) (A) (A) (A) (A) (A) (A)
                 (A) (A) (A) (A) (A) (A) (A) (A) (A) (A)
 Beta  Orbitals:
       Occupied  (A) (A) (A) (A) (A) (A) (A) (A) (A) (A) (A) (A)
                 (A) (A) (A) (A) (A) (A) (A) (A) (A) (A) (A)
       Virtual   (A) (A) (A) (A) (A) (A) (A) (A) (A) (A) (A) (A)
                 (A) (A) (A) (A) (A) (A) (A) (A) (A) (A) (A) (A)
                 (A) (A) (A) (A) (A) (A) (A) (A) (A) (A) (A) (A)
                 (A) (A) (A) (A) (A) (A) (A) (A) (A) (A) (A) (A)
                 (A) (A) (A) (A) (A) (A) (A) (A) (A) (A) (A) (A)
                 (A) (A) (A) (A) (A) (A) (A) (A) (A) (A) (A)
 The electronic state is 2-A.
 Alpha  occ. eigenvalues -- -323.58464 -39.40545 -34.63889 -34.62429 -34.60590
 Alpha  occ. eigenvalues --  -19.70606 -19.61535  -4.94397  -3.48335  -3.43563
 Alpha  occ. eigenvalues --   -3.39914  -1.61628  -1.49763  -1.14107  -1.12556
 Alpha  occ. eigenvalues --   -1.03188  -1.01572  -0.95710  -0.89017  -0.88173
 Alpha  occ. eigenvalues --   -0.88019  -0.84494  -0.81668  -0.79045
 Alpha virt. eigenvalues --   -0.47310  -0.37770  -0.33369  -0.32805  -0.26804
 Alpha virt. eigenvalues --   -0.19976  -0.18652  -0.03341  -0.02893   0.01310
 Alpha virt. eigenvalues --    0.13060   0.20981   0.28954   0.33909   0.34771
 Alpha virt. eigenvalues --    0.40319   0.58272   0.67578   0.84878   0.89664
 Alpha virt. eigenvalues --    0.96127   0.97881   1.03854   1.13816   1.18748
 Alpha virt. eigenvalues --    1.48825   1.53538   1.59658   1.60905   1.63595
 Alpha virt. eigenvalues --    2.13166   2.16387   2.22725   2.26849   2.34872
 Alpha virt. eigenvalues --    2.49274   2.57076   2.65304   2.67077   2.93409
 Alpha virt. eigenvalues --    3.13540   3.38184   3.38612   3.39283   3.40430
 Alpha virt. eigenvalues --    3.55043   3.63267   3.70882   4.23816   4.29186
 Alpha virt. eigenvalues --    4.42327   4.47483   4.51997   5.30327   6.59803
 Alpha virt. eigenvalues --    6.60010   6.73416   6.75121   6.85012   8.87823
 Alpha virt. eigenvalues --    8.93835   9.51707  31.53234  42.26244  42.29727
 Alpha virt. eigenvalues --   42.71383  49.21231  49.24579 183.55889 978.82852
  Beta  occ. eigenvalues -- -323.58434 -39.38466 -34.61380 -34.60456 -34.59993
  Beta  occ. eigenvalues --  -19.70109 -19.61195  -4.90229  -3.41580  -3.38715
  Beta  occ. eigenvalues --   -3.38475  -1.60316  -1.49043  -1.11960  -1.11671
  Beta  occ. eigenvalues --   -1.01267  -0.98570  -0.94007  -0.87022  -0.86168
  Beta  occ. eigenvalues --   -0.85898  -0.81735  -0.78718
  Beta virt. eigenvalues --   -0.63138  -0.46617  -0.37465  -0.33155  -0.32596
  Beta virt. eigenvalues --   -0.26671  -0.19770  -0.18494  -0.03018  -0.02739
  Beta virt. eigenvalues --    0.01460   0.14361   0.22229   0.29267   0.34213
  Beta virt. eigenvalues --    0.35884   0.40550   0.59069   0.68036   0.85590
  Beta virt. eigenvalues --    0.90843   0.97811   1.00571   1.04531   1.15205
  Beta virt. eigenvalues --    1.19458   1.51014   1.53752   1.59940   1.61080
  Beta virt. eigenvalues --    1.63739   2.14728   2.17618   2.24051   2.27460
  Beta virt. eigenvalues --    2.35798   2.50652   2.58099   2.65965   2.67690
  Beta virt. eigenvalues --    2.93875   3.15490   3.38850   3.39410   3.41586
  Beta virt. eigenvalues --    3.42490   3.58179   3.65396   3.72227   4.25019
  Beta virt. eigenvalues --    4.30403   4.42880   4.48397   4.52286   5.32063
  Beta virt. eigenvalues --    6.61510   6.61683   6.75081   6.82137   6.87167
  Beta virt. eigenvalues --    8.88835   8.96894   9.55454  31.55992  42.27087
  Beta virt. eigenvalues --   42.32229  42.74625  49.21718  49.24943 183.56952
  Beta virt. eigenvalues --  978.83081
          Condensed to atoms (all electrons):
               1          2          3          4          5          6
     1  Cu  27.441929   0.015569   0.085092  -0.005082  -0.005082  -0.012117
     2  O    0.015569   8.407819   0.000418   0.000633   0.000632   0.228477
     3  O    0.085092   0.000418   8.329832   0.246901   0.246901   0.000986
     4  H   -0.005082   0.000633   0.246901   0.210830  -0.015701   0.000121
     5  H   -0.005082   0.000632   0.246901  -0.015701   0.210831  -0.000016
     6  H   -0.012117   0.228477   0.000986   0.000121  -0.000016   0.209017
     7  H   -0.012122   0.228480   0.000987  -0.000016   0.000121  -0.014822
               7
     1  Cu  -0.012122
     2  O    0.228480
     3  O    0.000987
     4  H   -0.000016
     5  H    0.000121
     6  H   -0.014822
     7  H    0.209021
          Atomic-Atomic Spin Densities.
               1          2          3          4          5          6
     1  Cu   0.783375  -0.074237  -0.025842   0.000683   0.000683   0.000744
     2  O   -0.074237   0.309363  -0.011096   0.000188   0.000188  -0.001444
     3  O   -0.025842  -0.011096   0.137332  -0.001177  -0.001177  -0.000069
     4  H    0.000683   0.000188  -0.001177   0.000117   0.000527  -0.000005
     5  H    0.000683   0.000188  -0.001177   0.000527   0.000118   0.000000
     6  H    0.000744  -0.001444  -0.000069  -0.000005   0.000000  -0.003078
     7  H    0.000744  -0.001445  -0.000069   0.000000  -0.000005   0.000739
               7
     1  Cu   0.000744
     2  O   -0.001445
     3  O   -0.000069
     4  H    0.000000
     5  H   -0.000005
     6  H    0.000739
     7  H   -0.003081
 Mulliken charges and spin densities:
               1          2
     1  Cu   1.491812   0.686149
     2  O   -0.882027   0.221516
     3  O   -0.911116   0.097901
     4  H    0.562313   0.000332
     5  H    0.562313   0.000333
     6  H    0.588354  -0.003114
     7  H    0.588351  -0.003118
 Sum of Mulliken charges =   2.00000   1.00000
 Mulliken charges and spin densities with hydrogens summed into heavy atoms:
               1          2
     1  Cu   1.491812   0.686149
     2  O    0.294677   0.215285
     3  O    0.213510   0.098566
 Electronic spatial extent (au):  <R**2>=            234.5868
 Charge=              2.0000 electrons
 Dipole moment (field-independent basis, Debye):
    X=             -0.4431    Y=             -2.3757    Z=             -0.0002  Tot=              2.4167
 Quadrupole moment (field-independent basis, Debye-Ang):
   XX=              2.8717   YY=            -15.8379   ZZ=            -14.3466
   XY=              1.7009   XZ=              0.0006   YZ=             -0.0009
 Traceless Quadrupole moment (field-independent basis, Debye-Ang):
   XX=             11.9760   YY=             -6.7336   ZZ=             -5.2423
   XY=              1.7009   XZ=              0.0006   YZ=             -0.0009
 Octapole moment (field-independent basis, Debye-Ang**2):
  XXX=             11.2525  YYY=              4.8720  ZZZ=             -0.0005  XYY=             -5.4828
  XXY=            -19.9476  XXZ=             -0.0033  XZZ=              0.0970  YZZ=             -2.4308
  YYZ=              0.0018  XYZ=              0.0001
 Hexadecapole moment (field-independent basis, Debye-Ang**3):
 XXXX=            -62.8815 YYYY=            -29.6396 ZZZZ=            -12.1130 XXXY=             -3.4968
 XXXZ=              0.0042 YYYX=              4.6040 YYYZ=             -0.0023 ZZZX=              0.0006
 ZZZY=             -0.0003 XXYY=            -18.9805 XXZZ=             -7.4547 YYZZ=             -4.4421
 XXYZ=             -0.0012 YYXZ=             -0.0010 ZZXY=              1.1030
 N-N= 2.152869984580D+02 E-N=-4.690683548663D+03  KE= 1.792524319252D+03
                          Isotropic Fermi Contact Couplings
        Atom                 a.u.       MegaHertz       Gauss      10(-4) cm-1
     1  Cu(63)             0.10203     121.01576      43.18143      40.36651
     2  O(17)              0.08773     -53.18318     -18.97708     -17.74000
     3  O(17)              0.11589     -70.25449     -25.06855     -23.43437
     4  H(1)               0.00084       3.74748       1.33719       1.25002
     5  H(1)               0.00084       3.74970       1.33799       1.25076
     6  H(1)              -0.00025      -1.12019      -0.39971      -0.37366
     7  H(1)              -0.00025      -1.13210      -0.40396      -0.37763
 --------------------------------------------------------
       Center         ----  Spin Dipole Couplings  ----
                      3XX-RR        3YY-RR        3ZZ-RR
 --------------------------------------------------------
     1   Atom        1.719532      1.906775     -3.626308
     2   Atom        0.649597     -0.255899     -0.393698
     3   Atom        0.383937     -0.146403     -0.237533
     4   Atom        0.007672     -0.014232      0.006560
     5   Atom        0.007670     -0.014228      0.006558
     6   Atom        0.002047     -0.011997      0.009950
     7   Atom        0.002037     -0.011973      0.009936
 --------------------------------------------------------
                        XY            XZ            YZ
 --------------------------------------------------------
     1   Atom        1.315904      0.000145      0.000795
     2   Atom       -0.285025     -0.000203      0.000066
     3   Atom        0.223780      0.000032      0.000013
     4   Atom       -0.007044     -0.016516      0.009901
     5   Atom       -0.007046      0.016515     -0.009905
     6   Atom        0.016943      0.020832      0.026698
     7   Atom        0.016945     -0.020823     -0.026712
 --------------------------------------------------------


 ---------------------------------------------------------------------------------
              Anisotropic Spin Dipole Couplings in Principal Axis System
 ---------------------------------------------------------------------------------

       Atom             a.u.   MegaHertz   Gauss  10(-4) cm-1        Axes

              Baa    -3.6263  -513.419  -183.201  -171.258  0.0000 -0.0001  1.0000
     1 Cu(63) Bbb     0.4939    69.931    24.953    23.326  0.7318 -0.6816 -0.0001
              Bcc     3.1324   443.488   158.248   147.932  0.6816  0.7318  0.0001
 
              Baa    -0.3937    28.488    10.165     9.502  0.0001 -0.0002  1.0000
     2 O(17)  Bbb    -0.3381    24.468     8.731     8.162  0.2772  0.9608  0.0001
              Bcc     0.7318   -52.956   -18.896   -17.664  0.9608 -0.2772 -0.0002
 
              Baa    -0.2375    17.188     6.133     5.733  0.0000 -0.0001  1.0000
     3 O(17)  Bbb    -0.2282    16.513     5.892     5.508 -0.3433  0.9392  0.0001
              Bcc     0.4657   -33.701   -12.025   -11.241  0.9392  0.3433  0.0000
 
              Baa    -0.0182    -9.713    -3.466    -3.240  0.0277  0.9344 -0.3551
     4 H(1)   Bbb    -0.0089    -4.749    -1.695    -1.584  0.7340  0.2222  0.6418
              Bcc     0.0271    14.462     5.160     4.824 -0.6786  0.2784  0.6797
 
              Baa    -0.0182    -9.713    -3.466    -3.240  0.0277  0.9343  0.3553
     5 H(1)   Bbb    -0.0089    -4.749    -1.695    -1.584  0.7340  0.2223 -0.6417
              Bcc     0.0271    14.462     5.160     4.824  0.6786 -0.2786  0.6797
 
              Baa    -0.0302   -16.112    -5.749    -5.374 -0.1232  0.8546 -0.5044
     6 H(1)   Bbb    -0.0145    -7.713    -2.752    -2.573  0.8376 -0.1831 -0.5147
              Bcc     0.0447    23.825     8.501     7.947  0.5322  0.4859  0.6933
 
              Baa    -0.0302   -16.112    -5.749    -5.374 -0.1230  0.8544  0.5048
     7 H(1)   Bbb    -0.0145    -7.713    -2.752    -2.573  0.8377 -0.1833  0.5144
              Bcc     0.0447    23.825     8.501     7.947 -0.5320 -0.4862  0.6932
 

 ---------------------------------------------------------------------------------

 B after Tr=     1.920296   -2.115477   -0.511068
         Rot=    0.757758    0.216435    0.023312   -0.615155 Ang=  81.47 deg.
 Atom   5 needs variable   3=   0.9753329265 but is    0.9753308410
 Input z-matrix variables are not compatible with final structure.
 1\1\GINC-MILLENNIUM-FALCON\Scan\UB3LYP\6-311G(d)\Cu1H4O2(2+,2)\JAKE\17
 -Jun-2016\0\\#opt=(modredundant,maxcycles=350) B3LYP/6-311G* scf=xqc\\
 cu2(h20)2\\2,2\Cu,-0.7276837696,1.4555390417,0.9195188519\O,-1.0897520
 691,0.8485914753,2.1108662192\O,-0.1862379559,0.5475482722,-0.62889022
 12\H,-0.7796604769,0.2051218798,-1.3230545582\H,0.7254561693,0.2679161
 103,-0.8335704443\H,-1.9762295744,0.4695806165,2.3568478114\H,-0.49117
 70098,0.5312755458,2.8395775857\\Version=EM64L-G09RevD.01\State=2-A\HF
 =-1792.5470348,-1792.5464204,-1792.545755,-1792.5451724,-1792.5447022,
 -1792.5443758,-1792.5442352,-1792.5443318,-1792.5447272,-1792.5454755,
 -1792.5466582,-1792.553707,-1792.5572479,-1792.5616212,-1792.5668334,-
 1792.5728121,-1792.5793768,-1792.5862334,-1792.5928725,-1792.5984345,-
 1792.6015215,-1792.599892,-1792.5901279,-1792.5667957,-1792.5212679,-1
 792.4402075\S2=0.761937,0.761848,0.761844,0.76188,0.761928,0.762,0.762
 094,0.762213,0.762342,0.762444,0.762455,0.759766,0.758846,0.757668,0.7
 56306,0.754903,0.753645,0.752662,0.752007,0.751638,0.751475,0.751429,0
 .75145,0.751501,0.751554,0.751585\S2-1=0.,0.,0.,0.,0.,0.,0.,0.,0.,0.,0
 .,0.,0.,0.,0.,0.,0.,0.,0.,0.,0.,0.,0.,0.,0.,0.\S2A=0.750019,0.750018,0
 .750018,0.750017,0.750017,0.750016,0.750016,0.750015,0.750015,0.750014
 ,0.750013,0.750011,0.75001,0.750008,0.750007,0.750006,0.750004,0.75000
 3,0.750002,0.750002,0.750002,0.750002,0.750002,0.750002,0.750002,0.750
 002\RMSD=5.606e-09,2.068e-09,7.882e-09,1.019e-09,9.525e-09,7.921e-09,7
 .371e-09,8.641e-09,2.916e-09,8.033e-09,2.713e-09,6.622e-09,2.489e-09,6
 .849e-09,4.565e-09,4.909e-09,9.931e-09,5.665e-09,7.264e-09,1.317e-09,9
 .878e-09,7.111e-09,4.514e-09,5.063e-09,7.849e-09,9.076e-09\PG=C01 [X(C
 u1H4O2)]\\@


 COMMON SENSE IS NOT SO COMMON.   -- VOLTAIRE
 Job cpu time:       0 days  0 hours 41 minutes 52.3 seconds.
 File lengths (MBytes):  RWF=     10 Int=      0 D2E=      0 Chk=      3 Scr=      1
 Normal termination of Gaussian 09 at Fri Jun 17 13:51:20 2016.
