 Entering Gaussian System, Link 0=g09
 Input=2coord_b3lyp_A_F_120.inp
 Output=2coord_b3lyp_A_F_120.log
 Initial command:
 /usr/local/g09/l1.exe "./Gau-6215.inp" -scrdir="./"
 Entering Link 1 = /usr/local/g09/l1.exe PID=      6217.
  
 Copyright (c) 1988,1990,1992,1993,1995,1998,2003,2009,2013,
            Gaussian, Inc.  All Rights Reserved.
  
 This is part of the Gaussian(R) 09 program.  It is based on
 the Gaussian(R) 03 system (copyright 2003, Gaussian, Inc.),
 the Gaussian(R) 98 system (copyright 1998, Gaussian, Inc.),
 the Gaussian(R) 94 system (copyright 1995, Gaussian, Inc.),
 the Gaussian 92(TM) system (copyright 1992, Gaussian, Inc.),
 the Gaussian 90(TM) system (copyright 1990, Gaussian, Inc.),
 the Gaussian 88(TM) system (copyright 1988, Gaussian, Inc.),
 the Gaussian 86(TM) system (copyright 1986, Carnegie Mellon
 University), and the Gaussian 82(TM) system (copyright 1983,
 Carnegie Mellon University). Gaussian is a federally registered
 trademark of Gaussian, Inc.
  
 This software contains proprietary and confidential information,
 including trade secrets, belonging to Gaussian, Inc.
  
 This software is provided under written license and may be
 used, copied, transmitted, or stored only in accord with that
 written license.
  
 The following legend is applicable only to US Government
 contracts under FAR:
  
                    RESTRICTED RIGHTS LEGEND
  
 Use, reproduction and disclosure by the US Government is
 subject to restrictions as set forth in subparagraphs (a)
 and (c) of the Commercial Computer Software - Restricted
 Rights clause in FAR 52.227-19.
  
 Gaussian, Inc.
 340 Quinnipiac St., Bldg. 40, Wallingford CT 06492
  
  
 ---------------------------------------------------------------
 Warning -- This program may not be used in any manner that
 competes with the business of Gaussian, Inc. or will provide
 assistance to any competitor of Gaussian, Inc.  The licensee
 of this program is prohibited from giving any competitor of
 Gaussian, Inc. access to this program.  By using this program,
 the user acknowledges that Gaussian, Inc. is engaged in the
 business of creating and licensing software in the field of
 computational chemistry and represents and warrants to the
 licensee that it is not a competitor of Gaussian, Inc. and that
 it will not use this program in any manner prohibited above.
 ---------------------------------------------------------------
  

 Cite this work as:
 Gaussian 09, Revision D.01,
 M. J. Frisch, G. W. Trucks, H. B. Schlegel, G. E. Scuseria, 
 M. A. Robb, J. R. Cheeseman, G. Scalmani, V. Barone, B. Mennucci, 
 G. A. Petersson, H. Nakatsuji, M. Caricato, X. Li, H. P. Hratchian, 
 A. F. Izmaylov, J. Bloino, G. Zheng, J. L. Sonnenberg, M. Hada, 
 M. Ehara, K. Toyota, R. Fukuda, J. Hasegawa, M. Ishida, T. Nakajima, 
 Y. Honda, O. Kitao, H. Nakai, T. Vreven, J. A. Montgomery, Jr., 
 J. E. Peralta, F. Ogliaro, M. Bearpark, J. J. Heyd, E. Brothers, 
 K. N. Kudin, V. N. Staroverov, T. Keith, R. Kobayashi, J. Normand, 
 K. Raghavachari, A. Rendell, J. C. Burant, S. S. Iyengar, J. Tomasi, 
 M. Cossi, N. Rega, J. M. Millam, M. Klene, J. E. Knox, J. B. Cross, 
 V. Bakken, C. Adamo, J. Jaramillo, R. Gomperts, R. E. Stratmann, 
 O. Yazyev, A. J. Austin, R. Cammi, C. Pomelli, J. W. Ochterski, 
 R. L. Martin, K. Morokuma, V. G. Zakrzewski, G. A. Voth, 
 P. Salvador, J. J. Dannenberg, S. Dapprich, A. D. Daniels, 
 O. Farkas, J. B. Foresman, J. V. Ortiz, J. Cioslowski, 
 and D. J. Fox, Gaussian, Inc., Wallingford CT, 2013.
 
 ******************************************
 Gaussian 09:  EM64L-G09RevD.01 24-Apr-2013
                17-Jun-2016 
 ******************************************
 %mem=2GB
 %nprocshared=1
 Will use up to    1 processors via shared memory.
 %chk=pescuh2o2.chk
 -------------------------------------------------------
 #opt=(modredundant,maxcycles=350) B3LYP/6-311G* scf=xqc
 -------------------------------------------------------
 1/6=350,14=-1,18=120,19=15,26=3,38=1/1,3;
 2/9=110,12=2,17=6,18=5,40=1/2;
 3/5=4,6=6,7=1,11=2,16=1,25=1,30=1,71=1,74=-5/1,2,3;
 4//1;
 5/5=2,8=3,13=1,38=5/2,8;
 6/7=2,8=2,9=2,10=2,28=1/1;
 7//1,2,3,16;
 1/6=350,14=-1,18=20,19=15,26=3/3(2);
 2/9=110/2;
 99//99;
 2/9=110/2;
 3/5=4,6=6,7=1,11=2,16=1,25=1,30=1,71=1,74=-5/1,2,3;
 4/5=5,16=3,69=1/1;
 5/5=2,8=3,13=1,38=5/2,8;
 7//1,2,3,16;
 1/6=350,14=-1,18=20,19=15,26=3/3(-5);
 2/9=110/2;
 6/7=2,8=2,9=2,10=2,19=2,28=1/1;
 99/9=1/99;
 ---------
 cu2(h20)2
 ---------
 Symbolic Z-matrix:
 Charge =  2 Multiplicity = 2
 Cu
 O                    1    A
 O                    1    B        2    H
 H                    3    C        1    D        2    E        0
 H                    3    C        1    D        2    F        0
 H                    2    C        1    D        3    G        0
 H                    2    C        1    D        6    E        0
       Variables:
  A                     3.8852                   
  B                     1.88506                  
  C                     0.95                     
  D                   109.471                    
  E                   180.                       
  F                     0.                       
  G                    90.                       
  H                   120.                       
 
     4 tetrahedral angles replaced.
 Add virtual bond connecting atoms O2         and Cu1        Dist= 7.34D+00.
 The following ModRedundant input section has been read:
 A       2       1       3 F                                                   
 B       1       2 S  25 -0.100                                                
 

 GradGradGradGradGradGradGradGradGradGradGradGradGradGradGradGradGradGrad
 Berny optimization.
 Initialization pass.
                           ----------------------------
                           !    Initial Parameters    !
                           ! (Angstroms and Degrees)  !
 --------------------------                            --------------------------
 ! Name  Definition              Value          Derivative Info.                !
 --------------------------------------------------------------------------------
 ! R1    R(1,2)                  3.8852         Scan                            !
 ! R2    R(1,3)                  1.8851         estimate D2E/DX2                !
 ! R3    R(2,6)                  0.95           estimate D2E/DX2                !
 ! R4    R(2,7)                  0.95           estimate D2E/DX2                !
 ! R5    R(3,4)                  0.95           estimate D2E/DX2                !
 ! R6    R(3,5)                  0.95           estimate D2E/DX2                !
 ! A1    A(2,1,3)              120.0            Frozen                          !
 ! A2    A(1,2,6)              109.4712         estimate D2E/DX2                !
 ! A3    A(1,2,7)              109.4712         estimate D2E/DX2                !
 ! A4    A(6,2,7)              141.0576         estimate D2E/DX2                !
 ! A5    A(1,3,4)              109.4712         estimate D2E/DX2                !
 ! A6    A(1,3,5)              109.4712         estimate D2E/DX2                !
 ! A7    A(4,3,5)              141.0576         estimate D2E/DX2                !
 ! D1    D(3,1,2,6)             90.0            estimate D2E/DX2                !
 ! D2    D(3,1,2,7)            -90.0            estimate D2E/DX2                !
 ! D3    D(2,1,3,4)            180.0            estimate D2E/DX2                !
 ! D4    D(2,1,3,5)              0.0            estimate D2E/DX2                !
 ! D5    D(1,2,6,7)            180.0            estimate D2E/DX2                !
 ! D6    D(1,3,4,5)            180.0            estimate D2E/DX2                !
 --------------------------------------------------------------------------------
 Trust Radius=3.00D-01 FncErr=1.00D-07 GrdErr=1.00D-06
 Number of optimizations in scan=  26
 Number of steps in this run=    100 maximum allowed number of steps=    100.
 GradGradGradGradGradGradGradGradGradGradGradGradGradGradGradGradGradGrad

                          Input orientation:                          
 ---------------------------------------------------------------------
 Center     Atomic      Atomic             Coordinates (Angstroms)
 Number     Number       Type             X           Y           Z
 ---------------------------------------------------------------------
      1         29           0        0.000000    0.000000    0.000000
      2          8           0        0.000000    0.000000    3.885203
      3          8           0        1.632511    0.000000   -0.942530
      4          1           0        1.458918    0.000000   -1.876536
      5          1           0        2.354586    0.000000   -0.325192
      6          1           0        0.000000    0.895669    4.201870
      7          1           0        0.000000   -0.895669    4.201870
 ---------------------------------------------------------------------
                    Distance matrix (angstroms):
                    1          2          3          4          5
     1  Cu   0.000000
     2  O    3.885203   0.000000
     3  O    1.885061   5.096283   0.000000
     4  H    2.376936   5.943574   0.950000   0.000000
     5  H    2.376936   4.824055   0.950000   1.791337   0.000000
     6  H    4.296269   0.950000   5.471030   6.314877   5.180790
     7  H    4.296269   0.950000   5.471030   6.314877   5.180790
                    6          7
     6  H    0.000000
     7  H    1.791337   0.000000
 Stoichiometry    CuH4O2(2+,2)
 Framework group  CS[SG(CuH2O2),X(H2)]
 Deg. of freedom    10
 Full point group                 CS      NOp   2
 Largest Abelian subgroup         CS      NOp   2
 Largest concise Abelian subgroup CS      NOp   2
                         Standard orientation:                         
 ---------------------------------------------------------------------
 Center     Atomic      Atomic             Coordinates (Angstroms)
 Number     Number       Type             X           Y           Z
 ---------------------------------------------------------------------
      1         29           0        0.000000    0.697884    0.000000
      2          8           0       -1.917088   -2.681403    0.000000
      3          8           0        1.885007    0.712147    0.000000
      4          1           0        2.194888    1.610186    0.000000
      5          1           0        2.208442   -0.181100    0.000000
      6          1           0       -2.073342   -2.956834    0.895669
      7          1           0       -2.073342   -2.956834   -0.895669
 ---------------------------------------------------------------------
 Rotational constants (GHZ):     14.6474378      1.8298503      1.6437501
 Standard basis: 6-311G(d) (5D, 7F)
 There are    74 symmetry adapted cartesian basis functions of A'  symmetry.
 There are    28 symmetry adapted cartesian basis functions of A"  symmetry.
 There are    67 symmetry adapted basis functions of A'  symmetry.
 There are    27 symmetry adapted basis functions of A"  symmetry.
    94 basis functions,   165 primitive gaussians,   102 cartesian basis functions
    24 alpha electrons       23 beta electrons
       nuclear repulsion energy       145.3535409291 Hartrees.
 NAtoms=    7 NActive=    7 NUniq=    6 SFac= 1.36D+00 NAtFMM=   60 NAOKFM=F Big=F
 Integral buffers will be    131072 words long.
 Raffenetti 2 integral format.
 Two-electron integral symmetry is turned on.
 One-electron integrals computed using PRISM.
 NBasis=    94 RedAO= T EigKep=  1.33D-02  NBF=    67    27
 NBsUse=    94 1.00D-06 EigRej= -1.00D+00 NBFU=    67    27
 ExpMin= 4.08D-02 ExpMax= 3.37D+05 ExpMxC= 1.14D+04 IAcc=2 IRadAn=         4 AccDes= 0.00D+00
 Harris functional with IExCor=  402 and IRadAn=       4 diagonalized for initial guess.
 HarFok:  IExCor=  402 AccDes= 0.00D+00 IRadAn=         4 IDoV= 1 UseB2=F ITyADJ=14
 ICtDFT=  3500011 ScaDFX=  1.000000  1.000000  1.000000  1.000000
 FoFCou: FMM=F IPFlag=           0 FMFlag=      100000 FMFlg1=           0
         NFxFlg=           0 DoJE=T BraDBF=F KetDBF=T FulRan=T
         wScrn=  0.000000 ICntrl=     500 IOpCl=  0 I1Cent=   200000004 NGrid=           0
         NMat0=    1 NMatS0=      1 NMatT0=    0 NMatD0=    1 NMtDS0=    0 NMtDT0=    0
 Petite list used in FoFCou.
 Initial guess orbital symmetries:
 Alpha Orbitals:
       Occupied  (A') (A') (A') (A') (A") (A') (A') (A') (A') (A')
                 (A") (A') (A') (A') (A") (A') (A") (A') (A') (A')
                 (A') (A') (A") (A")
       Virtual   (A') (A') (A') (A') (A") (A') (A') (A') (A') (A")
                 (A") (A') (A') (A') (A') (A") (A') (A') (A") (A')
                 (A') (A") (A') (A") (A') (A') (A') (A') (A') (A")
                 (A") (A") (A") (A') (A') (A') (A') (A") (A') (A')
                 (A') (A') (A") (A') (A') (A") (A") (A') (A") (A')
                 (A') (A') (A") (A') (A") (A') (A") (A') (A') (A")
                 (A') (A') (A') (A") (A') (A') (A') (A') (A') (A')
 Beta  Orbitals:
       Occupied  (A') (A') (A') (A') (A") (A') (A') (A') (A') (A')
                 (A") (A') (A') (A') (A") (A') (A") (A') (A') (A')
                 (A') (A') (A")
       Virtual   (A") (A') (A') (A') (A') (A") (A') (A') (A') (A')
                 (A") (A") (A') (A') (A') (A') (A") (A') (A') (A")
                 (A') (A') (A") (A') (A") (A') (A') (A') (A') (A')
                 (A") (A") (A") (A") (A') (A') (A') (A') (A") (A')
                 (A') (A') (A') (A") (A') (A') (A") (A") (A') (A")
                 (A') (A') (A') (A") (A') (A") (A') (A") (A') (A')
                 (A") (A') (A') (A') (A") (A') (A') (A') (A') (A')
                 (A')
 The electronic state of the initial guess is 2-A".
 Initial guess <Sx>= 0.0000 <Sy>= 0.0000 <Sz>= 0.5000 <S**2>= 0.7500 S= 0.5000
 Keep R1 and R2 ints in memory in symmetry-blocked form, NReq=15545797.
 Requested convergence on RMS density matrix=1.00D-08 within  64 cycles.
 Requested convergence on MAX density matrix=1.00D-06.
 Requested convergence on             energy=1.00D-06.
 No special actions if energy rises.
 EnCoef did   100 forward-backward iterations
 EnCoef did   100 forward-backward iterations
 EnCoef did   100 forward-backward iterations
 EnCoef did   100 forward-backward iterations
 EnCoef did    10 forward-backward iterations
 EnCoef did    64 forward-backward iterations
 EnCoef did   100 forward-backward iterations
 EnCoef did   100 forward-backward iterations
 EnCoef did   100 forward-backward iterations
 EnCoef did   100 forward-backward iterations
 EnCoef did   100 forward-backward iterations
 EnCoef did   100 forward-backward iterations
 EnCoef did   100 forward-backward iterations
 EnCoef did   100 forward-backward iterations
 EnCoef did   100 forward-backward iterations
 EnCoef did   100 forward-backward iterations
 EnCoef did   100 forward-backward iterations
 EnCoef did   100 forward-backward iterations
 EnCoef did   100 forward-backward iterations
 Rare condition: small coef for last iteration:  0.438D-15
 Rare condition: small coef for last iteration:  0.000D+00
 EnCoef did     1 forward-backward iterations
 Rare condition: small coef for last iteration:  0.000D+00
 Rare condition: small coef for last iteration:  0.000D+00
 Rare condition: small coef for last iteration:  0.000D+00
 Rare condition: small coef for last iteration:  0.000D+00
 Rare condition: small coef for last iteration:  0.000D+00
 Rare condition: small coef for last iteration:  0.000D+00
 Rare condition: small coef for last iteration:  0.000D+00
 Rare condition: small coef for last iteration:  0.000D+00
 >>>>>>>>>> Convergence criterion not met.
 SCF Done:  E(UB3LYP) =  -1792.34661152     A.U. after   65 cycles
            NFock= 64  Conv=0.58D-02     -V/T= 1.9988
 <Sx>= 0.0000 <Sy>= 0.0000 <Sz>= 0.5000 <S**2>= 0.7516 S= 0.5008
 <L.S>= 0.000000000000E+00
 Annihilation of the first spin contaminant:
 S**2 before annihilation     0.7516,   after     0.7500
 Keep R1 and R2 ints in memory in symmetry-blocked form, NReq=15602405.
 Gradient too large for Newton-Raphson -- use scaled steepest descent instead.
  Beta Gap=    -0.401 HL deriv= 8.08D-18 Rot set to   7.99D-01
     Minimum is close to point  2 DX=  8.23D-03 DF= -4.19D-05 DXR=  2.67D-02 DFR=  7.13D-04 which will be used.
 Gradient too large for Newton-Raphson -- use scaled steepest descent instead.
 Gradient too large for Newton-Raphson -- use scaled steepest descent instead.
 Gradient too large for Newton-Raphson -- use scaled steepest descent instead.
 Gradient too large for Newton-Raphson -- use scaled steepest descent instead.
     Accept linear search using points  1 and  2.
 Gradient too large for Newton-Raphson -- use scaled steepest descent instead.
     Accept linear search using points  3 and  4.
 Gradient too large for Newton-Raphson -- use scaled steepest descent instead.
     Minimum is close to point  3 DX=  1.88D-02 DF= -1.24D-05 DXR=  5.90D-02 DFR=  3.49D-03 which will be used.
 Gradient too large for Newton-Raphson -- use scaled steepest descent instead.
     Minimum is close to point  5 DX=  1.25D-01 DF= -6.66D-06 DXR=  2.70D-02 DFR=  7.32D-04 which will be used.
 Gradient too large for Newton-Raphson -- use scaled steepest descent instead.
 Gradient too large for Newton-Raphson -- use scaled steepest descent instead.
 Gradient too large for Newton-Raphson -- use scaled steepest descent instead.
     Accept linear search using points  1 and  2.
 Gradient too large for Newton-Raphson -- use scaled steepest descent instead.
 Gradient too large for Newton-Raphson -- use scaled steepest descent instead.
     Accept linear search using points  1 and  2.
 Gradient too large for Newton-Raphson -- use scaled steepest descent instead.
     Minimum is close to point  3 DX= -1.66D-02 DF= -1.07D-07 DXR=  4.32D-02 DFR=  1.87D-03 which will be used.
 Gradient too large for Newton-Raphson -- use scaled steepest descent instead.
     Accept linear search using points  1 and  2.
 LinEq1:  Iter=  0 NonCon=     1 RMS=3.62D-04 Max=1.87D-02 NDo=     1
 AX will form     1 AO Fock derivatives at one time.
 LinEq1:  Iter=  1 NonCon=     1 RMS=2.26D-03 Max=7.03D-02 NDo=     1
 LinEq1:  Iter=  2 NonCon=     1 RMS=8.90D-04 Max=3.00D-02 NDo=     1
 LinEq1:  Iter=  3 NonCon=     1 RMS=1.18D-03 Max=4.45D-02 NDo=     1
 LinEq1:  Iter=  4 NonCon=     1 RMS=4.12D-04 Max=5.51D-03 NDo=     1
 LinEq1:  Iter=  5 NonCon=     1 RMS=1.92D-04 Max=3.86D-03 NDo=     1
 LinEq1:  Iter=  6 NonCon=     1 RMS=7.97D-05 Max=3.00D-03 NDo=     1
 LinEq1:  Iter=  7 NonCon=     1 RMS=6.18D-05 Max=1.50D-03 NDo=     1
 LinEq1:  Iter=  8 NonCon=     1 RMS=3.58D-05 Max=6.37D-04 NDo=     1
 LinEq1:  Iter=  9 NonCon=     1 RMS=1.27D-05 Max=3.57D-04 NDo=     1
 LinEq1:  Iter= 10 NonCon=     1 RMS=2.93D-06 Max=8.84D-05 NDo=     1
 LinEq1:  Iter= 11 NonCon=     1 RMS=1.03D-06 Max=3.38D-05 NDo=     1
 LinEq1:  Iter= 12 NonCon=     1 RMS=3.41D-07 Max=9.96D-06 NDo=     1
 LinEq1:  Iter= 13 NonCon=     1 RMS=8.07D-08 Max=1.56D-06 NDo=     1
 LinEq1:  Iter= 14 NonCon=     1 RMS=1.85D-08 Max=2.41D-07 NDo=     1
 LinEq1:  Iter= 15 NonCon=     1 RMS=6.17D-09 Max=1.81D-07 NDo=     1
 LinEq1:  Iter= 16 NonCon=     1 RMS=2.39D-09 Max=7.01D-08 NDo=     1
 LinEq1:  Iter= 17 NonCon=     0 RMS=6.07D-10 Max=1.02D-08 NDo=     1
 Linear equations converged to 5.756D-09 5.756D-08 after    17 iterations.
     Accept linear search using points  1 and  2.
     Minimum is close to point  2 DX= -8.63D-03 DF= -3.17D-09 DXR=  8.71D-03 DFR=  7.63D-05 which will be used.
 LinEq1:  Iter=  0 NonCon=     1 RMS=5.13D-05 Max=2.95D-03 NDo=     1
 LinEq1:  Iter=  1 NonCon=     1 RMS=5.41D-05 Max=2.22D-03 NDo=     1
 LinEq1:  Iter=  2 NonCon=     1 RMS=5.88D-05 Max=2.27D-03 NDo=     1
 LinEq1:  Iter=  3 NonCon=     1 RMS=2.99D-05 Max=6.11D-04 NDo=     1
 LinEq1:  Iter=  4 NonCon=     1 RMS=1.12D-05 Max=3.02D-04 NDo=     1
 LinEq1:  Iter=  5 NonCon=     1 RMS=1.09D-05 Max=3.77D-04 NDo=     1
 LinEq1:  Iter=  6 NonCon=     1 RMS=5.52D-06 Max=1.25D-04 NDo=     1
 LinEq1:  Iter=  7 NonCon=     1 RMS=2.03D-06 Max=4.34D-05 NDo=     1
 LinEq1:  Iter=  8 NonCon=     1 RMS=6.37D-07 Max=1.95D-05 NDo=     1
 LinEq1:  Iter=  9 NonCon=     1 RMS=2.79D-07 Max=9.87D-06 NDo=     1
 LinEq1:  Iter= 10 NonCon=     1 RMS=7.43D-08 Max=1.46D-06 NDo=     1
 LinEq1:  Iter= 11 NonCon=     1 RMS=2.45D-08 Max=6.05D-07 NDo=     1
 LinEq1:  Iter= 12 NonCon=     1 RMS=4.95D-09 Max=9.90D-08 NDo=     1
 LinEq1:  Iter= 13 NonCon=     1 RMS=1.45D-09 Max=3.03D-08 NDo=     1
 LinEq1:  Iter= 14 NonCon=     0 RMS=5.79D-10 Max=1.60D-08 NDo=     1
 Linear equations converged to 1.839D-09 1.839D-08 after    14 iterations.
     Minimum is close to point  2 DX=  4.07D-02 DF= -7.73D-12 DXR=  3.91D-02 DFR=  1.51D-03 which will be used.
 LinEq1:  Iter=  0 NonCon=     1 RMS=1.94D-07 Max=1.11D-05 NDo=     1
 LinEq1:  Iter=  1 NonCon=     1 RMS=3.42D-07 Max=1.69D-05 NDo=     1
 LinEq1:  Iter=  2 NonCon=     1 RMS=7.51D-08 Max=1.63D-06 NDo=     1
 LinEq1:  Iter=  3 NonCon=     1 RMS=5.13D-08 Max=1.25D-06 NDo=     1
 LinEq1:  Iter=  4 NonCon=     1 RMS=4.69D-08 Max=1.44D-06 NDo=     1
 LinEq1:  Iter=  5 NonCon=     1 RMS=3.32D-08 Max=1.01D-06 NDo=     1
 LinEq1:  Iter=  6 NonCon=     1 RMS=3.43D-08 Max=9.31D-07 NDo=     1
 LinEq1:  Iter=  7 NonCon=     1 RMS=1.12D-08 Max=2.08D-07 NDo=     1
 LinEq1:  Iter=  8 NonCon=     1 RMS=3.38D-09 Max=1.01D-07 NDo=     1
 LinEq1:  Iter=  9 NonCon=     1 RMS=1.57D-09 Max=5.65D-08 NDo=     1
 LinEq1:  Iter= 10 NonCon=     1 RMS=4.61D-10 Max=8.90D-09 NDo=     1
 LinEq1:  Iter= 11 NonCon=     1 RMS=1.38D-10 Max=4.07D-09 NDo=     1
 LinEq1:  Iter= 12 NonCon=     1 RMS=4.09D-11 Max=8.79D-10 NDo=     1
 LinEq1:  Iter= 13 NonCon=     1 RMS=1.58D-11 Max=5.23D-10 NDo=     1
 LinEq1:  Iter= 14 NonCon=     1 RMS=6.03D-12 Max=1.43D-10 NDo=     1
 LinEq1:  Iter= 15 NonCon=     0 RMS=1.29D-12 Max=2.66D-11 NDo=     1
 Linear equations converged to 7.253D-12 7.253D-11 after    15 iterations.
 Incorrect curvature in search direction -- initial direction reversed.
     Minimum is close to point 15 DX=  0.00D+00 DF=  0.00D+00 DXR=  0.00D+00 DFR=  0.00D+00 which will be used.
 LinEq1:  Iter=  0 NonCon=     1 RMS=2.28D-03 Max=1.31D-01 NDo=     1
 LinEq1:  Iter=  1 NonCon=     1 RMS=2.57D-03 Max=1.25D-01 NDo=     1
 LinEq1:  Iter=  2 NonCon=     1 RMS=6.72D-04 Max=1.62D-02 NDo=     1
 LinEq1:  Iter=  3 NonCon=     1 RMS=4.86D-04 Max=8.70D-03 NDo=     1
 LinEq1:  Iter=  4 NonCon=     1 RMS=3.29D-04 Max=7.40D-03 NDo=     1
 LinEq1:  Iter=  5 NonCon=     1 RMS=1.52D-04 Max=3.04D-03 NDo=     1
 LinEq1:  Iter=  6 NonCon=     1 RMS=1.11D-04 Max=4.09D-03 NDo=     1
 LinEq1:  Iter=  7 NonCon=     1 RMS=8.66D-05 Max=1.95D-03 NDo=     1
 LinEq1:  Iter=  8 NonCon=     1 RMS=2.51D-05 Max=5.36D-04 NDo=     1
 LinEq1:  Iter=  9 NonCon=     1 RMS=1.09D-05 Max=3.95D-04 NDo=     1
 LinEq1:  Iter= 10 NonCon=     1 RMS=3.74D-06 Max=9.79D-05 NDo=     1
 LinEq1:  Iter= 11 NonCon=     1 RMS=1.14D-06 Max=3.43D-05 NDo=     1
 LinEq1:  Iter= 12 NonCon=     1 RMS=3.00D-07 Max=6.44D-06 NDo=     1
 LinEq1:  Iter= 13 NonCon=     1 RMS=8.28D-08 Max=1.49D-06 NDo=     1
 LinEq1:  Iter= 14 NonCon=     1 RMS=2.06D-08 Max=3.57D-07 NDo=     1
 LinEq1:  Iter= 15 NonCon=     1 RMS=6.99D-09 Max=1.99D-07 NDo=     1
 LinEq1:  Iter= 16 NonCon=     0 RMS=2.41D-09 Max=3.20D-08 NDo=     1
 Linear equations converged to 5.756D-09 5.756D-08 after    16 iterations.
 Incorrect curvature in search direction -- initial direction reversed.
 Gradient too large for Newton-Raphson -- use scaled steepest descent instead.
 LinEq1:  Iter=  0 NonCon=     1 RMS=2.87D-04 Max=1.42D-02 NDo=     1
 LinEq1:  Iter=  1 NonCon=     1 RMS=8.19D-04 Max=4.57D-02 NDo=     1
 LinEq1:  Iter=  2 NonCon=     1 RMS=2.61D-03 Max=1.01D-01 NDo=     1
 LinEq1:  Iter=  3 NonCon=     1 RMS=1.94D-03 Max=3.14D-02 NDo=     1
 LinEq1:  Iter=  4 NonCon=     1 RMS=1.18D-03 Max=2.05D-02 NDo=     1
 LinEq1:  Iter=  5 NonCon=     1 RMS=1.07D-03 Max=1.87D-02 NDo=     1
 LinEq1:  Iter=  6 NonCon=     1 RMS=7.20D-04 Max=1.42D-02 NDo=     1
 LinEq1:  Iter=  7 NonCon=     1 RMS=2.21D-04 Max=4.45D-03 NDo=     1
 LinEq1:  Iter=  8 NonCon=     1 RMS=7.29D-05 Max=2.18D-03 NDo=     1
 LinEq1:  Iter=  9 NonCon=     1 RMS=2.93D-05 Max=1.05D-03 NDo=     1
 LinEq1:  Iter= 10 NonCon=     1 RMS=7.42D-06 Max=1.58D-04 NDo=     1
 LinEq1:  Iter= 11 NonCon=     1 RMS=1.81D-06 Max=4.90D-05 NDo=     1
 LinEq1:  Iter= 12 NonCon=     1 RMS=5.53D-07 Max=1.23D-05 NDo=     1
 LinEq1:  Iter= 13 NonCon=     1 RMS=1.55D-07 Max=4.43D-06 NDo=     1
 LinEq1:  Iter= 14 NonCon=     1 RMS=5.26D-08 Max=1.41D-06 NDo=     1
 LinEq1:  Iter= 15 NonCon=     1 RMS=1.65D-08 Max=2.75D-07 NDo=     1
 LinEq1:  Iter= 16 NonCon=     1 RMS=4.77D-09 Max=7.50D-08 NDo=     1
 LinEq1:  Iter= 17 NonCon=     0 RMS=8.48D-10 Max=1.16D-08 NDo=     1
 Linear equations converged to 5.756D-09 5.756D-08 after    17 iterations.
 Incorrect curvature in search direction -- initial direction reversed.
     Accept linear search using points  2 and  3.
 Gradient too large for Newton-Raphson -- use scaled steepest descent instead.
     Minimum is close to point  2 DX= -1.11D-02 DF= -7.33D-07 DXR=  5.88D-02 DFR=  3.47D-03 which will be used.
 Gradient too large for Newton-Raphson -- use scaled steepest descent instead.
     Minimum is close to point  3 DX=  1.80D-02 DF= -1.91D-07 DXR=  4.30D-02 DFR=  1.87D-03 which will be used.
 Gradient too large for Newton-Raphson -- use scaled steepest descent instead.
     Accept linear search using points  1 and  2.
 LinEq1:  Iter=  0 NonCon=     1 RMS=6.86D-04 Max=2.73D-02 NDo=     1
 LinEq1:  Iter=  1 NonCon=     1 RMS=5.29D-03 Max=2.45D-01 NDo=     1
 LinEq1:  Iter=  2 NonCon=     1 RMS=1.73D-03 Max=5.75D-02 NDo=     1
 LinEq1:  Iter=  3 NonCon=     1 RMS=7.47D-04 Max=1.65D-02 NDo=     1
 LinEq1:  Iter=  4 NonCon=     1 RMS=7.53D-04 Max=1.75D-02 NDo=     1
 LinEq1:  Iter=  5 NonCon=     1 RMS=5.94D-04 Max=1.44D-02 NDo=     1
 LinEq1:  Iter=  6 NonCon=     1 RMS=2.09D-04 Max=6.45D-03 NDo=     1
 LinEq1:  Iter=  7 NonCon=     1 RMS=1.53D-04 Max=3.64D-03 NDo=     1
 LinEq1:  Iter=  8 NonCon=     1 RMS=7.83D-05 Max=2.54D-03 NDo=     1
 LinEq1:  Iter=  9 NonCon=     1 RMS=3.31D-05 Max=1.18D-03 NDo=     1
 LinEq1:  Iter= 10 NonCon=     1 RMS=1.03D-05 Max=2.46D-04 NDo=     1
 LinEq1:  Iter= 11 NonCon=     1 RMS=2.34D-06 Max=5.31D-05 NDo=     1
 LinEq1:  Iter= 12 NonCon=     1 RMS=7.45D-07 Max=2.14D-05 NDo=     1
 LinEq1:  Iter= 13 NonCon=     1 RMS=3.05D-07 Max=7.39D-06 NDo=     1
 LinEq1:  Iter= 14 NonCon=     1 RMS=8.40D-08 Max=1.92D-06 NDo=     1
 LinEq1:  Iter= 15 NonCon=     1 RMS=2.29D-08 Max=5.02D-07 NDo=     1
 LinEq1:  Iter= 16 NonCon=     1 RMS=4.21D-09 Max=7.04D-08 NDo=     1
 LinEq1:  Iter= 17 NonCon=     0 RMS=1.05D-09 Max=2.55D-08 NDo=     1
 Linear equations converged to 5.756D-09 5.756D-08 after    17 iterations.
 Incorrect curvature in search direction -- initial direction reversed.
 Gradient too large for Newton-Raphson -- use scaled steepest descent instead.
     Accept linear search using points  1 and  2.
 Gradient too large for Newton-Raphson -- use scaled steepest descent instead.
 Gradient too large for Newton-Raphson -- use scaled steepest descent instead.
     Minimum is close to point  3 DX= -1.45D-02 DF= -9.06D-07 DXR=  7.82D-02 DFR=  6.16D-03 which will be used.
 LinEq1:  Iter=  0 NonCon=     1 RMS=1.52D-03 Max=8.04D-02 NDo=     1
 LinEq1:  Iter=  1 NonCon=     1 RMS=1.07D-02 Max=4.90D-01 NDo=     1
 LinEq1:  Iter=  2 NonCon=     1 RMS=9.58D-04 Max=4.45D-02 NDo=     1
 LinEq1:  Iter=  3 NonCon=     1 RMS=8.21D-04 Max=2.58D-02 NDo=     1
 LinEq1:  Iter=  4 NonCon=     1 RMS=3.99D-04 Max=9.99D-03 NDo=     1
 LinEq1:  Iter=  5 NonCon=     1 RMS=1.44D-04 Max=2.65D-03 NDo=     1
 LinEq1:  Iter=  6 NonCon=     1 RMS=5.49D-05 Max=1.13D-03 NDo=     1
 LinEq1:  Iter=  7 NonCon=     1 RMS=4.95D-05 Max=1.03D-03 NDo=     1
 LinEq1:  Iter=  8 NonCon=     1 RMS=3.12D-05 Max=8.21D-04 NDo=     1
 LinEq1:  Iter=  9 NonCon=     1 RMS=8.43D-06 Max=1.77D-04 NDo=     1
 LinEq1:  Iter= 10 NonCon=     1 RMS=2.56D-06 Max=5.69D-05 NDo=     1
 LinEq1:  Iter= 11 NonCon=     1 RMS=1.02D-06 Max=2.48D-05 NDo=     1
 LinEq1:  Iter= 12 NonCon=     1 RMS=3.51D-07 Max=6.59D-06 NDo=     1
 LinEq1:  Iter= 13 NonCon=     1 RMS=7.76D-08 Max=1.37D-06 NDo=     1
 LinEq1:  Iter= 14 NonCon=     1 RMS=2.01D-08 Max=3.98D-07 NDo=     1
 LinEq1:  Iter= 15 NonCon=     1 RMS=4.63D-09 Max=8.83D-08 NDo=     1
 LinEq1:  Iter= 16 NonCon=     0 RMS=9.94D-10 Max=2.77D-08 NDo=     1
 Linear equations converged to 5.756D-09 5.756D-08 after    16 iterations.
 Incorrect curvature in search direction -- initial direction reversed.
 Gradient too large for Newton-Raphson -- use scaled steepest descent instead.
 LinEq1:  Iter=  0 NonCon=     1 RMS=5.44D-04 Max=2.23D-02 NDo=     1
 LinEq1:  Iter=  1 NonCon=     1 RMS=5.68D-03 Max=2.83D-01 NDo=     1
 LinEq1:  Iter=  2 NonCon=     1 RMS=2.91D-03 Max=1.09D-01 NDo=     1
 LinEq1:  Iter=  3 NonCon=     1 RMS=1.98D-03 Max=3.49D-02 NDo=     1
 LinEq1:  Iter=  4 NonCon=     1 RMS=9.79D-04 Max=2.55D-02 NDo=     1
 LinEq1:  Iter=  5 NonCon=     1 RMS=6.30D-04 Max=1.64D-02 NDo=     1
 LinEq1:  Iter=  6 NonCon=     1 RMS=5.37D-04 Max=1.05D-02 NDo=     1
 LinEq1:  Iter=  7 NonCon=     1 RMS=1.85D-04 Max=5.07D-03 NDo=     1
 LinEq1:  Iter=  8 NonCon=     1 RMS=4.37D-05 Max=9.71D-04 NDo=     1
 LinEq1:  Iter=  9 NonCon=     1 RMS=1.42D-05 Max=4.72D-04 NDo=     1
 LinEq1:  Iter= 10 NonCon=     1 RMS=5.63D-06 Max=1.20D-04 NDo=     1
 LinEq1:  Iter= 11 NonCon=     1 RMS=1.66D-06 Max=3.49D-05 NDo=     1
 LinEq1:  Iter= 12 NonCon=     1 RMS=4.04D-07 Max=1.18D-05 NDo=     1
 LinEq1:  Iter= 13 NonCon=     1 RMS=1.59D-07 Max=3.49D-06 NDo=     1
 LinEq1:  Iter= 14 NonCon=     1 RMS=4.28D-08 Max=5.57D-07 NDo=     1
 LinEq1:  Iter= 15 NonCon=     1 RMS=9.93D-09 Max=2.53D-07 NDo=     1
 LinEq1:  Iter= 16 NonCon=     0 RMS=2.34D-09 Max=3.70D-08 NDo=     1
 Linear equations converged to 5.756D-09 5.756D-08 after    16 iterations.
 LinEq1:  Iter=  0 NonCon=     1 RMS=2.41D-03 Max=1.38D-01 NDo=     1
 LinEq1:  Iter=  1 NonCon=     1 RMS=5.05D-03 Max=2.36D-01 NDo=     1
 LinEq1:  Iter=  2 NonCon=     1 RMS=2.03D-03 Max=6.82D-02 NDo=     1
 LinEq1:  Iter=  3 NonCon=     1 RMS=1.49D-03 Max=4.00D-02 NDo=     1
 LinEq1:  Iter=  4 NonCon=     1 RMS=6.11D-04 Max=1.44D-02 NDo=     1
 LinEq1:  Iter=  5 NonCon=     1 RMS=2.91D-04 Max=9.32D-03 NDo=     1
 LinEq1:  Iter=  6 NonCon=     1 RMS=1.84D-04 Max=3.45D-03 NDo=     1
 LinEq1:  Iter=  7 NonCon=     1 RMS=1.13D-04 Max=2.57D-03 NDo=     1
 LinEq1:  Iter=  8 NonCon=     1 RMS=2.62D-05 Max=6.60D-04 NDo=     1
 LinEq1:  Iter=  9 NonCon=     1 RMS=6.81D-06 Max=1.65D-04 NDo=     1
 LinEq1:  Iter= 10 NonCon=     1 RMS=2.64D-06 Max=1.00D-04 NDo=     1
 LinEq1:  Iter= 11 NonCon=     1 RMS=9.77D-07 Max=2.42D-05 NDo=     1
 LinEq1:  Iter= 12 NonCon=     1 RMS=1.72D-07 Max=3.17D-06 NDo=     1
 LinEq1:  Iter= 13 NonCon=     1 RMS=3.67D-08 Max=5.56D-07 NDo=     1
 LinEq1:  Iter= 14 NonCon=     1 RMS=1.04D-08 Max=2.75D-07 NDo=     1
 LinEq1:  Iter= 15 NonCon=     1 RMS=3.33D-09 Max=8.93D-08 NDo=     1
 LinEq1:  Iter= 16 NonCon=     0 RMS=1.15D-09 Max=2.36D-08 NDo=     1
 Linear equations converged to 5.756D-09 5.756D-08 after    16 iterations.
     Accept linear search using points  1 and  2.
     Minimum is close to point  2 DX= -8.10D-03 DF= -2.62D-08 DXR=  8.16D-03 DFR=  7.41D-05 which will be used.
 Gradient too large for Newton-Raphson -- use scaled steepest descent instead.
     Accept linear search using points  1 and  2.
 LinEq1:  Iter=  0 NonCon=     1 RMS=1.58D-03 Max=9.09D-02 NDo=     1
 LinEq1:  Iter=  1 NonCon=     1 RMS=1.33D-03 Max=6.13D-02 NDo=     1
 LinEq1:  Iter=  2 NonCon=     1 RMS=8.27D-04 Max=2.49D-02 NDo=     1
 LinEq1:  Iter=  3 NonCon=     1 RMS=5.91D-04 Max=1.72D-02 NDo=     1
 LinEq1:  Iter=  4 NonCon=     1 RMS=2.41D-04 Max=5.85D-03 NDo=     1
 LinEq1:  Iter=  5 NonCon=     1 RMS=1.35D-04 Max=3.72D-03 NDo=     1
 LinEq1:  Iter=  6 NonCon=     1 RMS=9.01D-05 Max=2.14D-03 NDo=     1
 LinEq1:  Iter=  7 NonCon=     1 RMS=3.87D-05 Max=1.35D-03 NDo=     1
 LinEq1:  Iter=  8 NonCon=     1 RMS=1.30D-05 Max=2.13D-04 NDo=     1
 LinEq1:  Iter=  9 NonCon=     1 RMS=2.93D-06 Max=3.66D-05 NDo=     1
 LinEq1:  Iter= 10 NonCon=     1 RMS=7.04D-07 Max=1.26D-05 NDo=     1
 LinEq1:  Iter= 11 NonCon=     1 RMS=1.91D-07 Max=5.62D-06 NDo=     1
 LinEq1:  Iter= 12 NonCon=     1 RMS=7.01D-08 Max=1.26D-06 NDo=     1
 LinEq1:  Iter= 13 NonCon=     1 RMS=1.58D-08 Max=2.78D-07 NDo=     1
 LinEq1:  Iter= 14 NonCon=     1 RMS=4.26D-09 Max=1.08D-07 NDo=     1
 LinEq1:  Iter= 15 NonCon=     0 RMS=1.36D-09 Max=3.35D-08 NDo=     1
 Linear equations converged to 5.756D-09 5.756D-08 after    15 iterations.
 LinEq1:  Iter=  0 NonCon=     1 RMS=1.05D-04 Max=6.04D-03 NDo=     1
 LinEq1:  Iter=  1 NonCon=     1 RMS=1.07D-04 Max=2.78D-03 NDo=     1
 LinEq1:  Iter=  2 NonCon=     1 RMS=1.06D-04 Max=3.18D-03 NDo=     1
 LinEq1:  Iter=  3 NonCon=     1 RMS=5.78D-05 Max=1.26D-03 NDo=     1
 LinEq1:  Iter=  4 NonCon=     1 RMS=2.92D-05 Max=6.45D-04 NDo=     1
 LinEq1:  Iter=  5 NonCon=     1 RMS=1.31D-05 Max=3.01D-04 NDo=     1
 LinEq1:  Iter=  6 NonCon=     1 RMS=8.53D-06 Max=1.93D-04 NDo=     1
 LinEq1:  Iter=  7 NonCon=     1 RMS=5.02D-06 Max=1.23D-04 NDo=     1
 LinEq1:  Iter=  8 NonCon=     1 RMS=2.18D-06 Max=4.48D-05 NDo=     1
 LinEq1:  Iter=  9 NonCon=     1 RMS=5.53D-07 Max=7.56D-06 NDo=     1
 LinEq1:  Iter= 10 NonCon=     1 RMS=1.58D-07 Max=4.15D-06 NDo=     1
 LinEq1:  Iter= 11 NonCon=     1 RMS=5.46D-08 Max=1.84D-06 NDo=     1
 LinEq1:  Iter= 12 NonCon=     1 RMS=1.50D-08 Max=3.37D-07 NDo=     1
 LinEq1:  Iter= 13 NonCon=     1 RMS=3.67D-09 Max=6.92D-08 NDo=     1
 LinEq1:  Iter= 14 NonCon=     0 RMS=9.77D-10 Max=2.62D-08 NDo=     1
 Linear equations converged to 4.199D-09 4.199D-08 after    14 iterations.
     Accept linear search using points  1 and  2.
     Minimum is close to point  2 DX= -1.08D-03 DF= -2.27D-13 DXR=  1.08D-03 DFR=  1.49D-06 which will be used.
 LinEq1:  Iter=  0 NonCon=     1 RMS=8.37D-08 Max=4.61D-06 NDo=     1
 LinEq1:  Iter=  1 NonCon=     1 RMS=4.12D-07 Max=1.72D-05 NDo=     1
 LinEq1:  Iter=  2 NonCon=     1 RMS=8.40D-08 Max=2.30D-06 NDo=     1
 LinEq1:  Iter=  3 NonCon=     1 RMS=4.63D-08 Max=9.76D-07 NDo=     1
 LinEq1:  Iter=  4 NonCon=     1 RMS=4.03D-08 Max=1.01D-06 NDo=     1
 LinEq1:  Iter=  5 NonCon=     1 RMS=2.21D-08 Max=5.95D-07 NDo=     1
 LinEq1:  Iter=  6 NonCon=     1 RMS=1.33D-08 Max=1.76D-07 NDo=     1
 LinEq1:  Iter=  7 NonCon=     1 RMS=8.69D-09 Max=1.33D-07 NDo=     1
 LinEq1:  Iter=  8 NonCon=     1 RMS=2.64D-09 Max=5.05D-08 NDo=     1
 LinEq1:  Iter=  9 NonCon=     1 RMS=1.02D-09 Max=2.93D-08 NDo=     1
 LinEq1:  Iter= 10 NonCon=     1 RMS=3.92D-10 Max=1.09D-08 NDo=     1
 LinEq1:  Iter= 11 NonCon=     1 RMS=1.28D-10 Max=2.35D-09 NDo=     1
 LinEq1:  Iter= 12 NonCon=     1 RMS=2.63D-11 Max=6.19D-10 NDo=     1
 LinEq1:  Iter= 13 NonCon=     1 RMS=1.24D-11 Max=4.02D-10 NDo=     1
 LinEq1:  Iter= 14 NonCon=     0 RMS=3.08D-12 Max=3.90D-11 NDo=     1
 Linear equations converged to 6.153D-12 6.153D-11 after    14 iterations.
 SCF Done:  E(UB3LYP) =  -1792.49864817     a.u. after   37 cycles
            Convg  =    0.3912D-08                   297 Fock formations.
              S**2 =  0.7629                  -V/T =  2.0006
 <Sx>= 0.0000 <Sy>= 0.0000 <Sz>= 0.5000 <S**2>= 0.7629 S= 0.5064
 <L.S>= 0.000000000000E+00
 Annihilation of the first spin contaminant:
 S**2 before annihilation     0.7629,   after     0.7500

 **********************************************************************

            Population analysis using the SCF density.

 **********************************************************************

 Orbital symmetries:
 Alpha Orbitals:
       Occupied  (A') (A') (A') (A") (A') (A') (A') (A') (A') (A")
                 (A') (A') (A') (A') (A") (A') (A") (A') (A') (A')
                 (A') (A") (A') (A")
       Virtual   (A') (A') (A') (A') (A") (A') (A') (A') (A') (A")
                 (A') (A") (A') (A') (A') (A") (A') (A') (A") (A')
                 (A") (A') (A') (A") (A') (A') (A') (A') (A') (A")
                 (A") (A") (A') (A') (A") (A') (A') (A') (A") (A')
                 (A') (A") (A") (A') (A') (A') (A") (A') (A') (A")
                 (A') (A') (A") (A') (A") (A') (A") (A') (A') (A")
                 (A') (A') (A') (A") (A') (A') (A') (A') (A') (A')
 Beta  Orbitals:
       Occupied  (A') (A') (A') (A') (A") (A') (A') (A') (A') (A')
                 (A") (A') (A') (A') (A") (A') (A") (A') (A') (A")
                 (A') (A") (A')
       Virtual   (A') (A') (A') (A') (A') (A") (A') (A') (A') (A')
                 (A") (A') (A") (A') (A') (A') (A") (A') (A') (A")
                 (A') (A") (A') (A') (A") (A') (A') (A') (A') (A')
                 (A") (A") (A") (A") (A') (A') (A') (A') (A') (A")
                 (A') (A') (A") (A') (A") (A') (A") (A') (A') (A")
                 (A') (A') (A') (A") (A') (A") (A') (A") (A') (A')
                 (A") (A') (A') (A') (A") (A') (A') (A') (A') (A')
                 (A')
 The electronic state is 2-A'.
 Alpha  occ. eigenvalues -- -323.45651 -39.25143 -34.48440 -34.46682 -34.46598
 Alpha  occ. eigenvalues --  -19.56362 -19.56310  -4.78706  -3.30872  -3.27216
 Alpha  occ. eigenvalues --   -3.27057  -1.45451  -1.44120  -1.03344  -1.00964
 Alpha  occ. eigenvalues --   -0.87352  -0.79435  -0.77324  -0.77097  -0.76124
 Alpha  occ. eigenvalues --   -0.75752  -0.75700  -0.75621  -0.73411
 Alpha virt. eigenvalues --   -0.50545  -0.31954  -0.30615  -0.23915  -0.20821
 Alpha virt. eigenvalues --   -0.18783  -0.04347  -0.02470   0.04415   0.12188
 Alpha virt. eigenvalues --    0.28183   0.31024   0.34337   0.37266   0.43411
 Alpha virt. eigenvalues --    0.52917   0.68420   0.74648   0.82997   0.85324
 Alpha virt. eigenvalues --    0.98543   0.98619   0.99349   1.01986   1.20630
 Alpha virt. eigenvalues --    1.27199   1.54610   1.55818   1.72526   1.73698
 Alpha virt. eigenvalues --    2.27995   2.28793   2.35899   2.36050   2.37585
 Alpha virt. eigenvalues --    2.53263   2.69574   2.71854   2.73416   3.03743
 Alpha virt. eigenvalues --    3.04205   3.47918   3.48444   3.48481   3.48702
 Alpha virt. eigenvalues --    3.49006   3.49050   3.49213   4.27240   4.30118
 Alpha virt. eigenvalues --    4.35421   4.44078   4.64934   4.67293   6.70180
 Alpha virt. eigenvalues --    6.70298   6.72040   6.76121   6.80307   8.79778
 Alpha virt. eigenvalues --    8.85322   9.08204  31.48202  42.25821  42.29471
 Alpha virt. eigenvalues --   42.44327  49.26861  49.29725 183.54925 978.80500
  Beta  occ. eigenvalues -- -323.45649 -39.23936 -34.46792 -34.46008 -34.45983
  Beta  occ. eigenvalues --  -19.56231 -19.54923  -4.76229  -3.26267  -3.25561
  Beta  occ. eigenvalues --   -3.25439  -1.45155  -1.40587  -1.03241  -0.99999
  Beta  occ. eigenvalues --   -0.85093  -0.78860  -0.76133  -0.74667  -0.74309
  Beta  occ. eigenvalues --   -0.74299  -0.72920  -0.65591
  Beta virt. eigenvalues --   -0.62916  -0.49718  -0.31875  -0.30109  -0.23867
  Beta virt. eigenvalues --   -0.20557  -0.18633  -0.04289  -0.02124   0.04526
  Beta virt. eigenvalues --    0.12344   0.28846   0.31134   0.37993   0.38679
  Beta virt. eigenvalues --    0.43536   0.53604   0.68745   0.76494   0.83666
  Beta virt. eigenvalues --    0.85823   0.99195   0.99429   1.02094   1.02341
  Beta virt. eigenvalues --    1.21020   1.28334   1.54926   1.55970   1.72600
  Beta virt. eigenvalues --    1.73595   2.28894   2.32551   2.37955   2.40144
  Beta virt. eigenvalues --    2.40434   2.53844   2.69873   2.73084   2.74174
  Beta virt. eigenvalues --    3.04205   3.05941   3.48618   3.48671   3.49866
  Beta virt. eigenvalues --    3.50037   3.50049   3.51081   3.51624   4.30231
  Beta virt. eigenvalues --    4.33356   4.36657   4.44702   4.66171   4.67411
  Beta virt. eigenvalues --    6.71308   6.71442   6.72786   6.76907   6.85117
  Beta virt. eigenvalues --    8.80926   8.86302   9.10918  31.49809  42.26727
  Beta virt. eigenvalues --   42.30252  42.46511  49.28260  49.29859 183.55531
  Beta virt. eigenvalues --  978.80621
          Condensed to atoms (all electrons):
               1          2          3          4          5          6
     1  Cu  27.631008   0.005325   0.112668  -0.005681  -0.005560  -0.000289
     2  O    0.005325   8.062967  -0.000002  -0.000004  -0.000022   0.250421
     3  O    0.112668  -0.000002   8.331322   0.244686   0.245999   0.000002
     4  H   -0.005681  -0.000004   0.244686   0.193094  -0.009000   0.000000
     5  H   -0.005560  -0.000022   0.245999  -0.009000   0.200636   0.000001
     6  H   -0.000289   0.250421   0.000002   0.000000   0.000001   0.213101
     7  H   -0.000289   0.250421   0.000002   0.000000   0.000001  -0.011295
               7
     1  Cu  -0.000289
     2  O    0.250421
     3  O    0.000002
     4  H    0.000000
     5  H    0.000001
     6  H   -0.011295
     7  H    0.213101
          Atomic-Atomic Spin Densities.
               1          2          3          4          5          6
     1  Cu   0.442364  -0.000503  -0.009101   0.000105   0.000176   0.000022
     2  O   -0.000503   0.565096   0.000001   0.000000   0.000007  -0.006410
     3  O   -0.009101   0.000001   0.056019   0.000184   0.000232   0.000000
     4  H    0.000105   0.000000   0.000184  -0.000955  -0.000059   0.000000
     5  H    0.000176   0.000007   0.000232  -0.000059  -0.001033   0.000000
     6  H    0.000022  -0.006410   0.000000   0.000000   0.000000  -0.009612
     7  H    0.000022  -0.006410   0.000000   0.000000   0.000000   0.000600
               7
     1  Cu   0.000022
     2  O   -0.006410
     3  O    0.000000
     4  H    0.000000
     5  H    0.000000
     6  H    0.000600
     7  H   -0.009612
 Mulliken charges and spin densities:
               1          2
     1  Cu   1.262817   0.433085
     2  O   -0.569107   0.551781
     3  O   -0.934677   0.047336
     4  H    0.576903  -0.000724
     5  H    0.567945  -0.000677
     6  H    0.548059  -0.015400
     7  H    0.548059  -0.015400
 Sum of Mulliken charges =   2.00000   1.00000
 Mulliken charges and spin densities with hydrogens summed into heavy atoms:
               1          2
     1  Cu   1.262817   0.433085
     2  O    0.527012   0.520981
     3  O    0.210171   0.045934
 Electronic spatial extent (au):  <R**2>=            618.0577
 Charge=              2.0000 electrons
 Dipole moment (field-independent basis, Debye):
    X=             -2.0722    Y=             -3.3312    Z=              0.0000  Tot=              3.9232
 Quadrupole moment (field-independent basis, Debye-Ang):
   XX=              4.5370   YY=             14.3534   ZZ=            -16.6678
   XY=             21.2798   XZ=              0.0000   YZ=              0.0000
 Traceless Quadrupole moment (field-independent basis, Debye-Ang):
   XX=              3.7962   YY=             13.6125   ZZ=            -17.4087
   XY=             21.2798   XZ=              0.0000   YZ=              0.0000
 Octapole moment (field-independent basis, Debye-Ang**2):
  XXX=              0.9239  YYY=            -54.6054  ZZZ=              0.0000  XYY=            -47.1006
  XXY=            -25.7860  XXZ=              0.0000  XZZ=            -11.1106  YZZ=             -7.8882
  YYZ=              0.0000  XYZ=              0.0000
 Hexadecapole moment (field-independent basis, Debye-Ang**3):
 XXXX=           -145.5017 YYYY=            -39.4575 ZZZZ=            -11.2784 XXXY=            -10.3153
 XXXZ=              0.0000 YYYX=             83.8702 YYYZ=              0.0000 ZZZX=              0.0000
 ZZZY=              0.0000 XXYY=             52.9992 XXZZ=            -32.3997 YYZZ=            -16.8345
 XXYZ=              0.0000 YYXZ=              0.0000 ZZXY=            -13.0279
 N-N= 1.453535409291D+02 E-N=-4.556061875730D+03  KE= 1.791474796909D+03
 Symmetry A'   KE= 1.561505029746D+03
 Symmetry A"   KE= 2.299697671623D+02
                          Isotropic Fermi Contact Couplings
        Atom                 a.u.       MegaHertz       Gauss      10(-4) cm-1
     1  Cu(63)            -0.13190    -156.44407     -55.82313     -52.18413
     2  O(17)              0.06231     -37.76998     -13.47727     -12.59871
     3  O(17)              0.02941     -17.83017      -6.36225      -5.94750
     4  H(1)              -0.00033      -1.48351      -0.52935      -0.49485
     5  H(1)              -0.00036      -1.58917      -0.56706      -0.53009
     6  H(1)              -0.00826     -36.94251     -13.18201     -12.32270
     7  H(1)              -0.00826     -36.94251     -13.18201     -12.32270
 --------------------------------------------------------
       Center         ----  Spin Dipole Couplings  ----
                      3XX-RR        3YY-RR        3ZZ-RR
 --------------------------------------------------------
     1   Atom        2.195727     -1.260089     -0.935638
     2   Atom        1.133475     -0.055321     -1.078154
     3   Atom        0.203081     -0.100423     -0.102658
     4   Atom        0.005680      0.005379     -0.011059
     5   Atom        0.006542      0.004839     -0.011382
     6   Atom       -0.035826     -0.042949      0.078775
     7   Atom       -0.035826     -0.042949      0.078775
 --------------------------------------------------------
                        XY            XZ            YZ
 --------------------------------------------------------
     1   Atom        0.007352      0.000000      0.000000
     2   Atom       -1.509504      0.000000      0.000000
     3   Atom        0.003268      0.000000      0.000000
     4   Atom        0.007931      0.000000      0.000000
     5   Atom       -0.006482      0.000000      0.000000
     6   Atom       -0.011241     -0.026799     -0.043369
     7   Atom       -0.011241      0.026799      0.043369
 --------------------------------------------------------


 ---------------------------------------------------------------------------------
              Anisotropic Spin Dipole Couplings in Principal Axis System
 ---------------------------------------------------------------------------------

       Atom             a.u.   MegaHertz   Gauss  10(-4) cm-1        Axes

              Baa    -1.2601  -178.408   -63.660   -59.510 -0.0021  1.0000  0.0000
     1 Cu(63) Bbb    -0.9356  -132.469   -47.268   -44.187  0.0000  0.0000  1.0000
              Bcc     2.1957   310.877   110.929   103.697  1.0000  0.0021  0.0000
 
              Baa    -1.0832    78.382    27.969    26.146  0.5629  0.8266  0.0000
     2 O(17)  Bbb    -1.0782    78.014    27.837    26.023  0.0000  0.0000  1.0000
              Bcc     2.1614  -156.397   -55.806   -52.168  0.8266 -0.5629  0.0000
 
              Baa    -0.1027     7.428     2.651     2.478  0.0000  0.0000  1.0000
     3 O(17)  Bbb    -0.1005     7.269     2.594     2.425 -0.0108  0.9999  0.0000
              Bcc     0.2031   -14.697    -5.244    -4.903  0.9999  0.0108  0.0000
 
              Baa    -0.0111    -5.901    -2.106    -1.968  0.0000  0.0000  1.0000
     4 H(1)   Bbb    -0.0024    -1.282    -0.457    -0.428 -0.7004  0.7138  0.0000
              Bcc     0.0135     7.183     2.563     2.396  0.7138  0.7004  0.0000
 
              Baa    -0.0114    -6.073    -2.167    -2.026  0.0000  0.0000  1.0000
     5 H(1)   Bbb    -0.0008    -0.452    -0.161    -0.151  0.6595  0.7517  0.0000
              Bcc     0.0122     6.525     2.328     2.176  0.7517 -0.6595  0.0000
 
              Baa    -0.0687   -36.675   -13.086   -12.233  0.5325  0.7810  0.3264
     6 H(1)   Bbb    -0.0277   -14.763    -5.268    -4.925  0.8297 -0.5580 -0.0185
              Bcc     0.0964    51.438    18.354    17.158 -0.1677 -0.2806  0.9451
 
              Baa    -0.0687   -36.675   -13.086   -12.233  0.5325  0.7810 -0.3264
     7 H(1)   Bbb    -0.0277   -14.763    -5.268    -4.925  0.8297 -0.5580  0.0185
              Bcc     0.0964    51.438    18.354    17.158  0.1677  0.2806  0.9451
 

 ---------------------------------------------------------------------------------

 Calling FoFJK, ICntrl=      2127 FMM=F ISym2X=1 I1Cent= 0 IOpClX= 1 NMat=1 NMatS=1 NMatT=0.
 ***** Axes restored to original set *****
 -------------------------------------------------------------------
 Center     Atomic                   Forces (Hartrees/Bohr)
 Number     Number              X              Y              Z
 -------------------------------------------------------------------
      1       29          -0.006236337   -0.000000002   -0.001104890
      2        8           0.004108620    0.000000000   -0.072927426
      3        8          -0.070460138    0.000000001    0.043435439
      4        1           0.038706271    0.000000000   -0.022515332
      5        1           0.038066774    0.000000000   -0.024776746
      6        1          -0.002092595    0.007052070    0.038944478
      7        1          -0.002092595   -0.007052070    0.038944477
 -------------------------------------------------------------------
 Cartesian Forces:  Max     0.072927426 RMS     0.030422673

 GradGradGradGradGradGradGradGradGradGradGradGradGradGradGradGradGradGrad
 Berny optimization.
 FormGI is forming the generalized inverse of G from B-inverse, IUseBI=4.
 Internal  Forces:  Max     0.051308643 RMS     0.020190629
 Search for a local minimum.
 Step number   1 out of a maximum of  100 on scan point     1 out of    26
 All quantities printed in internal units (Hartrees-Bohrs-Radians)
 Mixed Optimization -- RFO/linear search
 Second derivative matrix not updated -- first step.
 The second derivative matrix:
                          R1        R2        R3        R4        R5
           R1           0.00858
           R2           0.00000   0.19001
           R3           0.00000   0.00000   0.57681
           R4           0.00000   0.00000   0.00000   0.57681
           R5           0.00000   0.00000   0.00000   0.00000   0.57681
           R6           0.00000   0.00000   0.00000   0.00000   0.00000
           A1           0.00000   0.00000   0.00000   0.00000   0.00000
           A2           0.00000   0.00000   0.00000   0.00000   0.00000
           A3           0.00000   0.00000   0.00000   0.00000   0.00000
           A4           0.00000   0.00000   0.00000   0.00000   0.00000
           A5           0.00000   0.00000   0.00000   0.00000   0.00000
           A6           0.00000   0.00000   0.00000   0.00000   0.00000
           A7           0.00000   0.00000   0.00000   0.00000   0.00000
           D1           0.00000   0.00000   0.00000   0.00000   0.00000
           D2           0.00000   0.00000   0.00000   0.00000   0.00000
           D3           0.00000   0.00000   0.00000   0.00000   0.00000
           D4           0.00000   0.00000   0.00000   0.00000   0.00000
           D5           0.00000   0.00000   0.00000   0.00000   0.00000
           D6           0.00000   0.00000   0.00000   0.00000   0.00000
                          R6        A1        A2        A3        A4
           R6           0.57681
           A1           0.00000   0.25000
           A2           0.00000   0.00000   0.16000
           A3           0.00000   0.00000   0.00000   0.16000
           A4           0.00000   0.00000   0.00000   0.00000   0.16000
           A5           0.00000   0.00000   0.00000   0.00000   0.00000
           A6           0.00000   0.00000   0.00000   0.00000   0.00000
           A7           0.00000   0.00000   0.00000   0.00000   0.00000
           D1           0.00000   0.00000   0.00000   0.00000   0.00000
           D2           0.00000   0.00000   0.00000   0.00000   0.00000
           D3           0.00000   0.00000   0.00000   0.00000   0.00000
           D4           0.00000   0.00000   0.00000   0.00000   0.00000
           D5           0.00000   0.00000   0.00000   0.00000   0.00000
           D6           0.00000   0.00000   0.00000   0.00000   0.00000
                          A5        A6        A7        D1        D2
           A5           0.16000
           A6           0.00000   0.16000
           A7           0.00000   0.00000   0.16000
           D1           0.00000   0.00000   0.00000   0.00230
           D2           0.00000   0.00000   0.00000   0.00000   0.00230
           D3           0.00000   0.00000   0.00000   0.00000   0.00000
           D4           0.00000   0.00000   0.00000   0.00000   0.00000
           D5           0.00000   0.00000   0.00000   0.00000   0.00000
           D6           0.00000   0.00000   0.00000   0.00000   0.00000
                          D3        D4        D5        D6
           D3           0.03612
           D4           0.00000   0.03612
           D5           0.00000   0.00000   0.01690
           D6           0.00000   0.00000   0.00000   0.01690
 ITU=  0
     Eigenvalues ---    0.00230   0.01424   0.02039   0.03612   0.16000
     Eigenvalues ---    0.16000   0.16000   0.16000   0.19001   0.57681
     Eigenvalues ---    0.57681   0.57681   0.576811000.000001000.00000
     Eigenvalues --- 1000.000001000.000001000.000001000.00000
 RFO step:  Lambda=-3.54382849D-02 EMin= 2.30000000D-03
 Linear search not attempted -- first point.
 Maximum step size (   0.300) exceeded in Quadratic search.
    -- Step size scaled by   0.719
 Iteration  1 RMS(Cart)=  0.07072290 RMS(Int)=  0.00334346
 Iteration  2 RMS(Cart)=  0.00322965 RMS(Int)=  0.00055579
 Iteration  3 RMS(Cart)=  0.00000408 RMS(Int)=  0.00055577
 Iteration  4 RMS(Cart)=  0.00000001 RMS(Int)=  0.00055577
 Iteration  1 RMS(Cart)=  0.00000000 RMS(Int)=  0.00000000
 ClnCor:  largest displacement from symmetrization is 2.11D-05 for atom     7.
 Variable       Old X    -DE/DX   Delta X   Delta X   Delta X     New X
                                 (Linear)    (Quad)   (Total)
    R1        7.34197   0.00496   0.00000   0.00000   0.00000   7.34197
    R2        3.56225   0.00740   0.00000   0.02360   0.02360   3.58585
    R3        1.79524   0.01963   0.00000   0.02305   0.02306   1.81830
    R4        1.79524   0.01963   0.00000   0.02305   0.02306   1.81830
    R5        1.79524   0.01506   0.00000   0.01769   0.01769   1.81293
    R6        1.79524   0.01284   0.00000   0.01507   0.01507   1.81031
    A1        2.09440   0.00314   0.00000   0.00000   0.00000   2.09440
    A2        1.91063   0.02056   0.00000   0.07566   0.07556   1.98619
    A3        1.91063   0.02056   0.00000   0.07566   0.07556   1.98619
    A4        2.46192  -0.04113   0.00000  -0.15131  -0.15139   2.31053
    A5        1.91063   0.02440   0.00000   0.08977   0.08977   2.00040
    A6        1.91063   0.02691   0.00000   0.09899   0.09899   2.00963
    A7        2.46192  -0.05131   0.00000  -0.18876  -0.18876   2.27316
    D1        1.57080   0.00064   0.00000   0.00933   0.01082   1.58161
    D2       -1.57080  -0.00064   0.00000  -0.00933  -0.01082  -1.58161
    D3        3.14159   0.00000   0.00000   0.00000   0.00000   3.14159
    D4        0.00000   0.00000   0.00000   0.00000   0.00000   0.00000
    D5        3.14159  -0.00193   0.00000  -0.02800  -0.02680   3.11479
    D6        3.14159   0.00000   0.00000   0.00000   0.00000   3.14159
         Item               Value     Threshold  Converged?
 Maximum Force            0.051309     0.000450     NO 
 RMS     Force            0.021298     0.000300     NO 
 Maximum Displacement     0.167971     0.001800     NO 
 RMS     Displacement     0.071279     0.001200     NO 
 Predicted change in Energy=-1.793130D-02
 GradGradGradGradGradGradGradGradGradGradGradGradGradGradGradGradGradGrad

                          Input orientation:                          
 ---------------------------------------------------------------------
 Center     Atomic      Atomic             Coordinates (Angstroms)
 Number     Number       Type             X           Y           Z
 ---------------------------------------------------------------------
      1         29           0       -0.029460    0.000000   -0.000826
      2          8           0       -0.010279    0.000000    3.884330
      3          8           0        1.609163    0.000000   -0.957702
      4          1           0        1.514406    0.000000   -1.912372
      5          1           0        2.397955    0.000000   -0.414079
      6          1           0       -0.017886    0.880320    4.272672
      7          1           0       -0.017886   -0.880320    4.272672
 ---------------------------------------------------------------------
                    Distance matrix (angstroms):
                    1          2          3          4          5
     1  Cu   0.000000
     2  O    3.885203   0.000000
     3  O    1.897551   5.105670   0.000000
     4  H    2.457138   5.993864   0.959360   0.000000
     5  H    2.462340   4.927058   0.957977   1.739408   0.000000
     6  H    4.363242   0.962201   5.547889   6.432546   5.345735
     7  H    4.363242   0.962201   5.547889   6.432546   5.345735
                    6          7
     6  H    0.000000
     7  H    1.760640   0.000000
 Stoichiometry    CuH4O2(2+,2)
 Framework group  CS[SG(CuH2O2),X(H2)]
 Deg. of freedom    10
 Full point group                 CS      NOp   2
 Largest Abelian subgroup         CS      NOp   2
 Largest concise Abelian subgroup CS      NOp   2
                         Standard orientation:                         
 ---------------------------------------------------------------------
 Center     Atomic      Atomic             Coordinates (Angstroms)
 Number     Number       Type             X           Y           Z
 ---------------------------------------------------------------------
      1         29           0        0.000000    0.700101    0.000000
      2          8           0       -1.937823   -2.667338    0.000000
      3          8           0        1.897549    0.702794    0.000000
      4          1           0        2.295893    1.575545    0.000000
      5          1           0        2.305805   -0.163835    0.000000
      6          1           0       -2.139750   -2.999141    0.880320
      7          1           0       -2.139750   -2.999141   -0.880320
 ---------------------------------------------------------------------
 Rotational constants (GHZ):     14.3909141      1.8171596      1.6296838
 Standard basis: 6-311G(d) (5D, 7F)
 There are    74 symmetry adapted cartesian basis functions of A'  symmetry.
 There are    28 symmetry adapted cartesian basis functions of A"  symmetry.
 There are    67 symmetry adapted basis functions of A'  symmetry.
 There are    27 symmetry adapted basis functions of A"  symmetry.
    94 basis functions,   165 primitive gaussians,   102 cartesian basis functions
    24 alpha electrons       23 beta electrons
       nuclear repulsion energy       144.1335855803 Hartrees.
 NAtoms=    7 NActive=    7 NUniq=    6 SFac= 1.36D+00 NAtFMM=   60 NAOKFM=F Big=F
 Integral buffers will be    131072 words long.
 Raffenetti 2 integral format.
 Two-electron integral symmetry is turned on.
 One-electron integrals computed using PRISM.
 NBasis=    94 RedAO= T EigKep=  1.33D-02  NBF=    67    27
 NBsUse=    94 1.00D-06 EigRej= -1.00D+00 NBFU=    67    27
 Initial guess from the checkpoint file:  "pescuh2o2.chk"
 B after Tr=     0.000000    0.000000    0.000000
         Rot=    0.999993    0.000000    0.000000    0.003679 Ang=   0.42 deg.
 Initial guess orbital symmetries:
 Alpha Orbitals:
       Occupied  (A') (A') (A') (A") (A') (A') (A') (A') (A') (A")
                 (A') (A') (A') (A') (A") (A') (A") (A') (A') (A')
                 (A') (A") (A') (A")
       Virtual   (A') (A') (A') (A') (A') (A') (A') (A') (A') (A')
                 (A') (A') (A') (A') (A') (A') (A') (A') (A') (A')
                 (A') (A') (A') (A') (A') (A') (A') (A') (A') (A')
                 (A') (A') (A') (A') (A') (A') (A') (A') (A') (A')
                 (A') (A') (A') (A') (A') (A') (A') (A') (A') (A")
                 (A") (A") (A") (A") (A") (A") (A") (A") (A") (A")
                 (A") (A") (A") (A") (A") (A") (A") (A") (A") (A")
 Beta  Orbitals:
       Occupied  (A') (A') (A') (A') (A") (A') (A') (A') (A') (A')
                 (A") (A') (A') (A') (A") (A') (A") (A') (A') (A")
                 (A') (A") (A')
       Virtual   (A') (A') (A') (A') (A') (A') (A') (A') (A') (A')
                 (A') (A') (A') (A') (A') (A') (A') (A') (A') (A')
                 (A') (A') (A') (A') (A') (A') (A') (A') (A') (A')
                 (A') (A') (A') (A') (A') (A') (A') (A') (A') (A')
                 (A') (A') (A') (A') (A') (A') (A') (A') (A') (A')
                 (A") (A") (A") (A") (A") (A") (A") (A") (A") (A")
                 (A") (A") (A") (A") (A") (A") (A") (A") (A") (A")
                 (A")
 Initial guess <Sx>= 0.0000 <Sy>= 0.0000 <Sz>= 0.5000 <S**2>= 0.7630 S= 0.5065
 ExpMin= 4.08D-02 ExpMax= 3.37D+05 ExpMxC= 1.14D+04 IAcc=2 IRadAn=         4 AccDes= 0.00D+00
 Harris functional with IExCor=  402 and IRadAn=       4 diagonalized for initial guess.
 HarFok:  IExCor=  402 AccDes= 0.00D+00 IRadAn=         4 IDoV= 1 UseB2=F ITyADJ=14
 ICtDFT=  3500011 ScaDFX=  1.000000  1.000000  1.000000  1.000000
 FoFCou: FMM=F IPFlag=           0 FMFlag=      100000 FMFlg1=           0
         NFxFlg=           0 DoJE=T BraDBF=F KetDBF=T FulRan=T
         wScrn=  0.000000 ICntrl=     500 IOpCl=  0 I1Cent=   200000004 NGrid=           0
         NMat0=    1 NMatS0=      1 NMatT0=    0 NMatD0=    1 NMtDS0=    0 NMtDT0=    0
 Petite list used in FoFCou.
 Keep R1 and R2 ints in memory in symmetry-blocked form, NReq=15545797.
 Requested convergence on RMS density matrix=1.00D-08 within  64 cycles.
 Requested convergence on MAX density matrix=1.00D-06.
 Requested convergence on             energy=1.00D-06.
 No special actions if energy rises.
 EnCoef did     3 forward-backward iterations
 Rare condition: small coef for last iteration: -0.444D-15
 SCF Done:  E(UB3LYP) =  -1792.52135971     A.U. after   16 cycles
            NFock= 16  Conv=0.67D-08     -V/T= 2.0006
 <Sx>= 0.0000 <Sy>= 0.0000 <Sz>= 0.5000 <S**2>= 0.7622 S= 0.5061
 <L.S>= 0.000000000000E+00
 Annihilation of the first spin contaminant:
 S**2 before annihilation     0.7622,   after     0.7500
 QCSCF skips out because SCF is already converged.
 Calling FoFJK, ICntrl=      2127 FMM=F ISym2X=1 I1Cent= 0 IOpClX= 1 NMat=1 NMatS=1 NMatT=0.
 ***** Axes restored to original set *****
 -------------------------------------------------------------------
 Center     Atomic                   Forces (Hartrees/Bohr)
 Number     Number              X              Y              Z
 -------------------------------------------------------------------
      1       29          -0.000395388    0.000000000   -0.003970328
      2        8           0.004048872    0.000000000   -0.057795655
      3        8          -0.052153645    0.000000000    0.031241819
      4        1           0.029829823    0.000000000   -0.009247569
      5        1           0.022789815    0.000000000   -0.022638007
      6        1          -0.002059738   -0.003800415    0.031204870
      7        1          -0.002059738    0.003800415    0.031204870
 -------------------------------------------------------------------
 Cartesian Forces:  Max     0.057795655 RMS     0.022950002

 GradGradGradGradGradGradGradGradGradGradGradGradGradGradGradGradGradGrad
 Berny optimization.
 Using GEDIIS/GDIIS optimizer.
 FormGI is forming the generalized inverse of G from B-inverse, IUseBI=4.
 Internal  Forces:  Max     0.037542762 RMS     0.015195739
 Search for a local minimum.
 Step number   2 out of a maximum of  100 on scan point     1 out of    26
 All quantities printed in internal units (Hartrees-Bohrs-Radians)
 Mixed Optimization -- RFO/linear search
 Update second derivatives using D2CorX and points    1    2
 DE= -2.27D-02 DEPred=-1.79D-02 R= 1.27D+00
 TightC=F SS=  1.41D+00  RLast= 3.02D-01 DXNew= 5.0454D-01 9.0467D-01
 Trust test= 1.27D+00 RLast= 3.02D-01 DXMaxT set to 5.05D-01
 The second derivative matrix:
                          R1        R2        R3        R4        R5
           R1           0.00860
           R2           0.00039   0.19627
           R3           0.00062   0.00800   0.58389
           R4           0.00062   0.00800   0.00708   0.58389
           R5           0.00052   0.00699   0.00678   0.00678   0.58315
           R6           0.00041   0.00529   0.00473   0.00473   0.00451
           A1           0.00002   0.00035   0.00055   0.00055   0.00046
           A2           0.00014  -0.00092  -0.00645  -0.00645  -0.00465
           A3           0.00014  -0.00094  -0.00648  -0.00648  -0.00467
           A4          -0.00027   0.00192   0.01304   0.01304   0.00941
           A5           0.00038   0.00310  -0.00107  -0.00107   0.00001
           A6           0.00043   0.00360  -0.00089  -0.00089   0.00025
           A7          -0.00081  -0.00670   0.00196   0.00196  -0.00027
           D1          -0.00002  -0.00046  -0.00073  -0.00073  -0.00061
           D2           0.00002   0.00046   0.00073   0.00073   0.00061
           D3           0.00000   0.00000   0.00000   0.00000   0.00000
           D4           0.00000   0.00000   0.00000   0.00000   0.00000
           D5          -0.00003  -0.00040  -0.00044  -0.00044  -0.00040
           D6           0.00000   0.00000   0.00000   0.00000   0.00000
                          R6        A1        A2        A3        A4
           R6           0.57996
           A1           0.00036   0.25002
           A2          -0.00420   0.00012   0.15126
           A3          -0.00422   0.00012  -0.00875   0.15124
           A4           0.00848  -0.00024   0.01755   0.01756   0.12480
           A5          -0.00064   0.00034  -0.00891  -0.00893   0.01793
           A6          -0.00051   0.00038  -0.00977  -0.00979   0.01965
           A7           0.00115  -0.00073   0.01868   0.01872  -0.03758
           D1          -0.00048  -0.00002  -0.00018  -0.00018   0.00035
           D2           0.00048   0.00002   0.00018   0.00018  -0.00035
           D3           0.00000   0.00000   0.00000   0.00000   0.00000
           D4           0.00000   0.00000   0.00000   0.00000   0.00000
           D5          -0.00029  -0.00002   0.00018   0.00018  -0.00036
           D6           0.00000   0.00000   0.00000   0.00000   0.00000
                          A5        A6        A7        D1        D2
           A5           0.15348
           A6          -0.00702   0.15246
           A7           0.01354   0.01456   0.13190
           D1          -0.00046  -0.00052   0.00098   0.00233
           D2           0.00046   0.00052  -0.00098  -0.00003   0.00233
           D3           0.00000   0.00000   0.00000   0.00000   0.00000
           D4           0.00000   0.00000   0.00000   0.00000   0.00000
           D5          -0.00008  -0.00011   0.00019   0.00003  -0.00003
           D6           0.00000   0.00000   0.00000   0.00000   0.00000
                          D3        D4        D5        D6
           D3           0.03612
           D4           0.00000   0.03612
           D5           0.00000   0.00000   0.01692
           D6           0.00000   0.00000   0.00000   0.01690
 ITU=  1  0
 Use linear search instead of GDIIS.
 Linear search step of   0.600 exceeds DXMaxT=   0.505 but not scaled.
 Quartic linear search produced a step of  2.00000.
 Iteration  1 RMS(Cart)=  0.10796203 RMS(Int)=  0.04141130
 Iteration  2 RMS(Cart)=  0.04204654 RMS(Int)=  0.00305864
 Iteration  3 RMS(Cart)=  0.00122253 RMS(Int)=  0.00277598
 Iteration  4 RMS(Cart)=  0.00000101 RMS(Int)=  0.00277598
 Iteration  5 RMS(Cart)=  0.00000000 RMS(Int)=  0.00277598
 Iteration  1 RMS(Cart)=  0.00000000 RMS(Int)=  0.00000000
 ClnCor:  largest displacement from symmetrization is 4.69D-04 for atom     7.
 Variable       Old X    -DE/DX   Delta X   Delta X   Delta X     New X
                                 (Linear)    (Quad)   (Total)
    R1        7.34197   0.00461   0.00000   0.00000   0.00000   7.34197
    R2        3.58585   0.00073   0.04720   0.00000   0.04720   3.63305
    R3        1.81830   0.00913   0.04611   0.00000   0.04622   1.86452
    R4        1.81830   0.00913   0.04611   0.00000   0.04622   1.86452
    R5        1.81293   0.00626   0.03538   0.00000   0.03538   1.84830
    R6        1.81031   0.00592   0.03015   0.00000   0.03015   1.84046
    A1        2.09440   0.00283   0.00000   0.00000   0.00000   2.09440
    A2        1.98619   0.01822   0.15112   0.00000   0.15055   2.13675
    A3        1.98619   0.01824   0.15112   0.00000   0.15055   2.13675
    A4        2.31053  -0.03650  -0.30277   0.00000  -0.30326   2.00727
    A5        2.00040   0.01793   0.17953   0.00000   0.17953   2.17993
    A6        2.00963   0.01961   0.19799   0.00000   0.19799   2.20761
    A7        2.27316  -0.03754  -0.37752   0.00000  -0.37752   1.89564
    D1        1.58161   0.00104   0.02164   0.00000   0.02843   1.61005
    D2       -1.58161  -0.00104  -0.02164   0.00000  -0.02843  -1.61005
    D3        3.14159   0.00000   0.00000   0.00000   0.00000   3.14159
    D4        0.00000   0.00000   0.00000   0.00000   0.00000   0.00000
    D5        3.11479  -0.00147  -0.05360   0.00000  -0.04630   3.06849
    D6        3.14159   0.00000   0.00000   0.00000   0.00000   3.14159
         Item               Value     Threshold  Converged?
 Maximum Force            0.037543     0.000450     NO 
 RMS     Force            0.016011     0.000300     NO 
 Maximum Displacement     0.372424     0.001800     NO 
 RMS     Displacement     0.145737     0.001200     NO 
 Predicted change in Energy=-2.752764D-02
 GradGradGradGradGradGradGradGradGradGradGradGradGradGradGradGradGradGrad

                          Input orientation:                          
 ---------------------------------------------------------------------
 Center     Atomic      Atomic             Coordinates (Angstroms)
 Number     Number       Type             X           Y           Z
 ---------------------------------------------------------------------
      1         29           0       -0.084518    0.000000   -0.001961
      2          8           0       -0.029006    0.000000    3.882846
      3          8           0        1.566537    0.000000   -0.986916
      4          1           0        1.636164    0.000000   -1.962515
      5          1           0        2.465060    0.000000   -0.611157
      6          1           0       -0.054123    0.832178    4.412322
      7          1           0       -0.054123   -0.832178    4.412322
 ---------------------------------------------------------------------
                    Distance matrix (angstroms):
                    1          2          3          4          5
     1  Cu   0.000000
     2  O    3.885203   0.000000
     3  O    1.922530   5.124484   0.000000
     4  H    2.608548   6.077914   0.978081   0.000000
     5  H    2.621349   5.139691   0.973930   1.585319   0.000000
     6  H    4.492142   0.986659   5.698319   6.647417   5.681034
     7  H    4.492142   0.986659   5.698319   6.647417   5.681034
                    6          7
     6  H    0.000000
     7  H    1.664355   0.000000
 Stoichiometry    CuH4O2(2+,2)
 Framework group  CS[SG(CuH2O2),X(H2)]
 Deg. of freedom    10
 Full point group                 CS      NOp   2
 Largest Abelian subgroup         CS      NOp   2
 Largest concise Abelian subgroup CS      NOp   2
                         Standard orientation:                         
 ---------------------------------------------------------------------
 Center     Atomic      Atomic             Coordinates (Angstroms)
 Number     Number       Type             X           Y           Z
 ---------------------------------------------------------------------
      1         29           0        0.000000    0.704351    0.000000
      2          8           0       -1.976852   -2.640325    0.000000
      3          8           0        1.922429    0.684723    0.000000
      4          1           0        2.490207    1.481133    0.000000
      5          1           0        2.493540   -0.104183    0.000000
      6          1           0       -2.274181   -3.079155    0.832178
      7          1           0       -2.274181   -3.079155   -0.832178
 ---------------------------------------------------------------------
 Rotational constants (GHZ):     13.9379985      1.7923444      1.6021771
 Standard basis: 6-311G(d) (5D, 7F)
 There are    74 symmetry adapted cartesian basis functions of A'  symmetry.
 There are    28 symmetry adapted cartesian basis functions of A"  symmetry.
 There are    67 symmetry adapted basis functions of A'  symmetry.
 There are    27 symmetry adapted basis functions of A"  symmetry.
    94 basis functions,   165 primitive gaussians,   102 cartesian basis functions
    24 alpha electrons       23 beta electrons
       nuclear repulsion energy       141.8955868838 Hartrees.
 NAtoms=    7 NActive=    7 NUniq=    6 SFac= 1.36D+00 NAtFMM=   60 NAOKFM=F Big=F
 Integral buffers will be    131072 words long.
 Raffenetti 2 integral format.
 Two-electron integral symmetry is turned on.
 One-electron integrals computed using PRISM.
 NBasis=    94 RedAO= T EigKep=  1.33D-02  NBF=    67    27
 NBsUse=    94 1.00D-06 EigRej= -1.00D+00 NBFU=    67    27
 Initial guess from the checkpoint file:  "pescuh2o2.chk"
 B after Tr=     0.000000    0.000000    0.000000
         Rot=    0.999975    0.000000    0.000000    0.007044 Ang=   0.81 deg.
 Initial guess orbital symmetries:
 Alpha Orbitals:
       Occupied  (A') (A') (A') (A") (A') (A') (A') (A') (A') (A")
                 (A') (A') (A') (A') (A") (A') (A") (A') (A') (A')
                 (A') (A") (A') (A")
       Virtual   (A') (A') (A') (A') (A') (A') (A') (A') (A') (A')
                 (A') (A') (A') (A') (A') (A') (A') (A') (A') (A')
                 (A') (A') (A') (A') (A') (A') (A') (A') (A') (A')
                 (A') (A') (A') (A') (A') (A') (A') (A') (A') (A')
                 (A') (A') (A') (A') (A') (A') (A') (A') (A') (A")
                 (A") (A") (A") (A") (A") (A") (A") (A") (A") (A")
                 (A") (A") (A") (A") (A") (A") (A") (A") (A") (A")
 Beta  Orbitals:
       Occupied  (A') (A') (A') (A') (A") (A') (A') (A') (A') (A')
                 (A") (A') (A') (A') (A") (A') (A") (A') (A') (A")
                 (A') (A") (A')
       Virtual   (A') (A') (A') (A') (A') (A') (A') (A') (A') (A')
                 (A') (A') (A') (A') (A') (A') (A') (A') (A') (A')
                 (A') (A') (A') (A') (A') (A') (A') (A') (A') (A')
                 (A') (A') (A') (A') (A') (A') (A') (A') (A') (A')
                 (A') (A') (A') (A') (A') (A') (A') (A') (A') (A')
                 (A") (A") (A") (A") (A") (A") (A") (A") (A") (A")
                 (A") (A") (A") (A") (A") (A") (A") (A") (A") (A")
                 (A")
 Initial guess <Sx>= 0.0000 <Sy>= 0.0000 <Sz>= 0.5000 <S**2>= 0.7623 S= 0.5061
 ExpMin= 4.08D-02 ExpMax= 3.37D+05 ExpMxC= 1.14D+04 IAcc=2 IRadAn=         4 AccDes= 0.00D+00
 Harris functional with IExCor=  402 and IRadAn=       4 diagonalized for initial guess.
 HarFok:  IExCor=  402 AccDes= 0.00D+00 IRadAn=         4 IDoV= 1 UseB2=F ITyADJ=14
 ICtDFT=  3500011 ScaDFX=  1.000000  1.000000  1.000000  1.000000
 FoFCou: FMM=F IPFlag=           0 FMFlag=      100000 FMFlg1=           0
         NFxFlg=           0 DoJE=T BraDBF=F KetDBF=T FulRan=T
         wScrn=  0.000000 ICntrl=     500 IOpCl=  0 I1Cent=   200000004 NGrid=           0
         NMat0=    1 NMatS0=      1 NMatT0=    0 NMatD0=    1 NMtDS0=    0 NMtDT0=    0
 Petite list used in FoFCou.
 Keep R1 and R2 ints in memory in symmetry-blocked form, NReq=15545797.
 Requested convergence on RMS density matrix=1.00D-08 within  64 cycles.
 Requested convergence on MAX density matrix=1.00D-06.
 Requested convergence on             energy=1.00D-06.
 No special actions if energy rises.
 SCF Done:  E(UB3LYP) =  -1792.54457734     A.U. after   17 cycles
            NFock= 17  Conv=0.93D-08     -V/T= 2.0007
 <Sx>= 0.0000 <Sy>= 0.0000 <Sz>= 0.5000 <S**2>= 0.7609 S= 0.5055
 <L.S>= 0.000000000000E+00
 Annihilation of the first spin contaminant:
 S**2 before annihilation     0.7609,   after     0.7500
 QCSCF skips out because SCF is already converged.
 Calling FoFJK, ICntrl=      2127 FMM=F ISym2X=1 I1Cent= 0 IOpClX= 1 NMat=1 NMatS=1 NMatT=0.
 ***** Axes restored to original set *****
 -------------------------------------------------------------------
 Center     Atomic                   Forces (Hartrees/Bohr)
 Number     Number              X              Y              Z
 -------------------------------------------------------------------
      1       29           0.007792691    0.000000000   -0.008344443
      2        8           0.001798765    0.000000000   -0.007855381
      3        8          -0.001985050    0.000000000   -0.001726423
      4        1          -0.001430471    0.000000000    0.007011832
      5        1          -0.004303226    0.000000000   -0.001181226
      6        1          -0.000936354   -0.013318446    0.006047820
      7        1          -0.000936354    0.013318446    0.006047820
 -------------------------------------------------------------------
 Cartesian Forces:  Max     0.013318446 RMS     0.005785911

 GradGradGradGradGradGradGradGradGradGradGradGradGradGradGradGradGradGrad
 Berny optimization.
 Using GEDIIS/GDIIS optimizer.
 FormGI is forming the generalized inverse of G from B-inverse, IUseBI=4.
 Internal  Forces:  Max     0.015249567 RMS     0.005837079
 Search for a local minimum.
 Step number   3 out of a maximum of  100 on scan point     1 out of    26
 All quantities printed in internal units (Hartrees-Bohrs-Radians)
 Mixed Optimization -- RFO/linear search
 Update second derivatives using D2CorX and points    2    3
 The second derivative matrix:
                          R1        R2        R3        R4        R5
           R1           0.00858
           R2           0.00010   0.19128
           R3           0.00018   0.00073   0.57351
           R4           0.00018   0.00073  -0.00331   0.57351
           R5           0.00015   0.00065  -0.00238  -0.00238   0.57511
           R6           0.00011   0.00027  -0.00254  -0.00254  -0.00185
           A1           0.00001   0.00016   0.00029   0.00029   0.00023
           A2           0.00012  -0.00060  -0.00528  -0.00528  -0.00396
           A3           0.00012  -0.00061  -0.00528  -0.00528  -0.00397
           A4          -0.00023   0.00138   0.01085   0.01085   0.00816
           A5           0.00020   0.00090  -0.00335  -0.00335  -0.00242
           A6           0.00021   0.00074  -0.00415  -0.00415  -0.00302
           A7          -0.00042  -0.00164   0.00751   0.00751   0.00544
           D1           0.00000   0.00004   0.00006   0.00006   0.00005
           D2           0.00000  -0.00004  -0.00006  -0.00006  -0.00005
           D3           0.00000   0.00000   0.00000   0.00000   0.00000
           D4           0.00000   0.00000   0.00000   0.00000   0.00000
           D5          -0.00001  -0.00015  -0.00010  -0.00010  -0.00009
           D6           0.00000   0.00000   0.00000   0.00000   0.00000
                          R6        A1        A2        A3        A4
           R6           0.57492
           A1           0.00018   0.25001
           A2          -0.00370   0.00018   0.15366
           A3          -0.00370   0.00018  -0.00635   0.15365
           A4           0.00759  -0.00036   0.01279   0.01280   0.13423
           A5          -0.00262   0.00032  -0.00564  -0.00565   0.01149
           A6          -0.00317   0.00034  -0.00650  -0.00651   0.01324
           A7           0.00579  -0.00065   0.01215   0.01216  -0.02473
           D1           0.00004   0.00000   0.00004   0.00004  -0.00008
           D2          -0.00004   0.00000  -0.00004  -0.00004   0.00008
           D3           0.00000   0.00000   0.00000   0.00000   0.00000
           D4           0.00000   0.00000   0.00000   0.00000   0.00000
[...]
           A6         125.30884 125.33233 125.14328 124.99026 124.93630
           A7         110.20450 109.60240 109.62738 109.57982 109.50559
           D1         109.87648  80.00453  81.46594  82.88312  83.88535
           D2        -109.82465 -80.01040 -81.38293 -82.88324 -83.97546
           D3         179.99019 179.99603 179.99458 179.99605 179.99339
           D4          -0.00208  -0.03232  -0.02894  -0.03120  -0.02972
           D5         144.58648-162.73128-165.18381-167.72944-169.56281
           D6        -179.99328 179.97545 179.97958 179.97630 179.97990
                          21        22        23        24        25
     Eigenvalues --  **************************************************
           R1           1.88520   1.78520   1.68520   1.58520   1.48520
           R2           1.86441   1.86924   1.87474   1.88047   1.88660
           R3           0.97740   0.97917   0.98153   0.98472   0.98919
           R4           0.97740   0.97917   0.98153   0.98474   0.98919
           R5           0.97526   0.97521   0.97515   0.97512   0.97518
           R6           0.97332   0.97309   0.97282   0.97256   0.97237
           A1         120.00000 120.00000 120.00000 120.00000 120.00000
           A2         125.48021 125.74042 126.07759 126.51731 127.06747
           A3         125.47226 125.72602 126.03809 126.46212 127.07664
           A4         108.30409 107.88871 107.27343 106.39986 105.18441
           A5         125.57069 125.61841 125.66019 125.69358 125.73500
           A6         125.05096 125.16889 125.31379 125.44654 125.57375
           A7         109.37834 109.21269 109.02594 108.85964 108.69113
           D1          84.46708  84.85096  84.92802  84.92100  84.64767
           D2         -84.48421 -84.81399 -84.95393 -84.79891 -84.54461
           D3         179.99868-179.98618-179.95120-179.90992-179.91796
           D4          -0.02819  -0.03010  -0.06032  -0.10698  -0.05305
           D5        -170.53811-171.19672-171.44454-171.39545-171.08228
           D6         179.97669 179.96198 179.90581 179.83036 179.88400
                          26
     Eigenvalues --  **********
           R1           1.38520
           R2           1.89431
           R3           0.99547
           R4           0.99546
           R5           0.97528
           R6           0.97222
           A1         120.00000
           A2         127.78479
           A3         127.85473
           A4         103.52953
           A5         125.79139
           A6         125.66735
           A7         108.54124
           D1          83.93416
           D2         -83.87341
           D3        -179.92752
           D4           0.02020
           D5        -170.12418
           D6         179.95520
                          Input orientation:                          
 ---------------------------------------------------------------------
 Center     Atomic      Atomic             Coordinates (Angstroms)
 Number     Number       Type             X           Y           Z
 ---------------------------------------------------------------------
      1         29           0       -0.126006    0.000255    1.187043
      2          8           0        0.124384   -0.000098    2.549428
      3          8           0        1.316282   -0.000272   -0.041050
      4          1           0        1.237682    0.000930   -1.013161
      5          1           0        2.259952   -0.001068    0.192810
      6          1           0        0.316797    0.782041    3.134405
      7          1           0        0.316913   -0.781788    3.134947
 ---------------------------------------------------------------------
                    Distance matrix (angstroms):
                    1          2          3          4          5
     1  Cu   0.000000
     2  O    1.385203   0.000000
     3  O    1.894309   2.851525   0.000000
     4  H    2.588540   3.732488   0.975284   0.000000
     5  H    2.584820   3.180299   0.972216   1.580951   0.000000
     6  H    2.144640   0.995471   3.419722   4.319776   3.611384
     7  H    2.145250   0.995459   3.420009   4.320563   3.611246
                    6          7
     6  H    0.000000
     7  H    1.563829   0.000000
 Stoichiometry    CuH4O2(2+,2)
 Framework group  C1[X(CuH4O2)]
 Deg. of freedom    15
 Full point group                 C1      NOp   1
 Largest Abelian subgroup         C1      NOp   1
 Largest concise Abelian subgroup C1      NOp   1
                         Standard orientation:                         
 ---------------------------------------------------------------------
 Center     Atomic      Atomic             Coordinates (Angstroms)
 Number     Number       Type             X           Y           Z
 ---------------------------------------------------------------------
      1         29           0       -0.139638    0.345573   -0.000055
      2          8           0       -1.231276   -0.507137    0.000025
      3          8           0        1.616665   -0.364217   -0.000032
      4          1           0        2.441916    0.155532    0.000918
      5          1           0        1.846293   -1.308926   -0.000245
      6          1           0       -1.660748   -0.948056    0.782397
      7          1           0       -1.661063   -0.949346   -0.781431
 ---------------------------------------------------------------------
 Rotational constants (GHZ):     27.6207624      6.0513349      5.0869742

 **********************************************************************

            Population analysis using the SCF density.

 **********************************************************************

 Orbital symmetries:
 Alpha Orbitals:
       Occupied  (A) (A) (A) (A) (A) (A) (A) (A) (A) (A) (A) (A)
                 (A) (A) (A) (A) (A) (A) (A) (A) (A) (A) (A) (A)
       Virtual   (A) (A) (A) (A) (A) (A) (A) (A) (A) (A) (A) (A)
                 (A) (A) (A) (A) (A) (A) (A) (A) (A) (A) (A) (A)
                 (A) (A) (A) (A) (A) (A) (A) (A) (A) (A) (A) (A)
                 (A) (A) (A) (A) (A) (A) (A) (A) (A) (A) (A) (A)
                 (A) (A) (A) (A) (A) (A) (A) (A) (A) (A) (A) (A)
                 (A) (A) (A) (A) (A) (A) (A) (A) (A) (A)
 Beta  Orbitals:
       Occupied  (A) (A) (A) (A) (A) (A) (A) (A) (A) (A) (A) (A)
                 (A) (A) (A) (A) (A) (A) (A) (A) (A) (A) (A)
       Virtual   (A) (A) (A) (A) (A) (A) (A) (A) (A) (A) (A) (A)
                 (A) (A) (A) (A) (A) (A) (A) (A) (A) (A) (A) (A)
                 (A) (A) (A) (A) (A) (A) (A) (A) (A) (A) (A) (A)
                 (A) (A) (A) (A) (A) (A) (A) (A) (A) (A) (A) (A)
                 (A) (A) (A) (A) (A) (A) (A) (A) (A) (A) (A) (A)
                 (A) (A) (A) (A) (A) (A) (A) (A) (A) (A) (A)
 The electronic state is 2-A.
 Alpha  occ. eigenvalues -- -323.58963 -39.41035 -34.64446 -34.62950 -34.60979
 Alpha  occ. eigenvalues --  -19.71179 -19.60005  -4.94947  -3.49009  -3.44204
 Alpha  occ. eigenvalues --   -3.40261  -1.62133  -1.48491  -1.14627  -1.12972
 Alpha  occ. eigenvalues --   -1.03746  -1.00351  -0.95489  -0.89839  -0.89181
 Alpha  occ. eigenvalues --   -0.87863  -0.83366  -0.82245  -0.78231
 Alpha virt. eigenvalues --   -0.48267  -0.38475  -0.33634  -0.32851  -0.26168
 Alpha virt. eigenvalues --   -0.20185  -0.15557  -0.09052  -0.00474   0.02313
 Alpha virt. eigenvalues --    0.14458   0.24502   0.25880   0.32642   0.35302
 Alpha virt. eigenvalues --    0.43037   0.60111   0.68240   0.83435   0.89397
 Alpha virt. eigenvalues --    0.92320   0.96013   1.04551   1.14411   1.17391
 Alpha virt. eigenvalues --    1.49924   1.53841   1.57347   1.63938   1.64558
 Alpha virt. eigenvalues --    2.13107   2.15429   2.27656   2.28290   2.32359
 Alpha virt. eigenvalues --    2.46601   2.55319   2.64738   2.68580   2.94920
 Alpha virt. eigenvalues --    3.13621   3.37419   3.38279   3.38439   3.40034
 Alpha virt. eigenvalues --    3.55407   3.62700   3.70314   4.25757   4.27070
 Alpha virt. eigenvalues --    4.42029   4.48484   4.54786   5.30429   6.58944
 Alpha virt. eigenvalues --    6.60234   6.69006   6.76294   6.82934   8.86241
 Alpha virt. eigenvalues --    8.94120   9.50838  31.53017  42.24859  42.29767
 Alpha virt. eigenvalues --   42.70663  49.20779  49.25916 183.55614 978.82567
  Beta  occ. eigenvalues -- -323.58934 -39.38905 -34.61866 -34.60931 -34.60373
  Beta  occ. eigenvalues --  -19.70651 -19.59755  -4.90672  -3.42121  -3.39178
  Beta  occ. eigenvalues --   -3.38785  -1.60755  -1.47976  -1.12355  -1.12222
  Beta  occ. eigenvalues --   -1.00647  -0.97891  -0.93567  -0.87784  -0.87271
  Beta  occ. eigenvalues --   -0.85657  -0.81558  -0.77786
  Beta virt. eigenvalues --   -0.63532  -0.47585  -0.38165  -0.33411  -0.32682
  Beta virt. eigenvalues --   -0.26016  -0.19986  -0.15377  -0.08470  -0.00257
  Beta virt. eigenvalues --    0.02462   0.15618   0.25681   0.26115   0.32905
  Beta virt. eigenvalues --    0.36068   0.43457   0.60880   0.68693   0.84080
  Beta virt. eigenvalues --    0.90627   0.93151   0.99212   1.05816   1.15880
  Beta virt. eigenvalues --    1.18033   1.52123   1.54034   1.57647   1.64032
  Beta virt. eigenvalues --    1.64882   2.14717   2.16736   2.28514   2.29010
  Beta virt. eigenvalues --    2.32987   2.48097   2.56376   2.65398   2.68854
  Beta virt. eigenvalues --    2.95459   3.15612   3.38323   3.39014   3.40659
  Beta virt. eigenvalues --    3.42287   3.58680   3.64843   3.71638   4.27282
  Beta virt. eigenvalues --    4.27551   4.42600   4.49433   4.55069   5.32140
  Beta virt. eigenvalues --    6.60669   6.62214   6.70696   6.83334   6.85084
  Beta virt. eigenvalues --    8.87274   8.97294   9.54661  31.55843  42.25723
  Beta virt. eigenvalues --   42.32367  42.73955  49.21299  49.26191 183.56702
  Beta virt. eigenvalues --  978.82798
          Condensed to atoms (all electrons):
               1          2          3          4          5          6
     1  Cu  27.413096   0.016776   0.081927  -0.002423  -0.007449  -0.010531
     2  O    0.016776   8.412643  -0.001407  -0.000313   0.001975   0.226323
     3  O    0.081927  -0.001407   8.349856   0.247371   0.251610   0.000735
     4  H   -0.002423  -0.000313   0.247371   0.211545  -0.016302   0.000002
     5  H   -0.007449   0.001975   0.251610  -0.016302   0.214986   0.000076
     6  H   -0.010531   0.226323   0.000735   0.000002   0.000076   0.208918
     7  H   -0.010528   0.226328   0.000733   0.000002   0.000076  -0.014919
               7
     1  Cu  -0.010528
     2  O    0.226328
     3  O    0.000733
     4  H    0.000002
     5  H    0.000076
     6  H   -0.014919
     7  H    0.208827
          Atomic-Atomic Spin Densities.
               1          2          3          4          5          6
     1  Cu   0.801512  -0.085846  -0.020487   0.000515   0.000529   0.001012
     2  O   -0.085846   0.329864  -0.010075  -0.000140   0.000988  -0.001547
     3  O   -0.020487  -0.010075   0.100830   0.000618  -0.001568  -0.000065
     4  H    0.000515  -0.000140   0.000618   0.006985   0.000518   0.000001
     5  H    0.000529   0.000988  -0.001568   0.000518  -0.001477  -0.000009
     6  H    0.001012  -0.001547  -0.000065   0.000001  -0.000009  -0.003424
     7  H    0.001013  -0.001546  -0.000064   0.000001  -0.000009   0.000723
               7
     1  Cu   0.001013
     2  O   -0.001546
     3  O   -0.000064
     4  H    0.000001
     5  H   -0.000009
     6  H    0.000723
     7  H   -0.003416
 Mulliken charges and spin densities:
               1          2
     1  Cu   1.519131   0.698247
     2  O   -0.882326   0.231699
     3  O   -0.930825   0.069189
     4  H    0.560117   0.008498
     5  H    0.555027  -0.001028
     6  H    0.589396  -0.003308
     7  H    0.589480  -0.003298
 Sum of Mulliken charges =   2.00000   1.00000
 Mulliken charges and spin densities with hydrogens summed into heavy atoms:
               1          2
     1  Cu   1.519131   0.698247
     2  O    0.296550   0.225093
     3  O    0.184319   0.076660
 Electronic spatial extent (au):  <R**2>=            234.2161
 Charge=              2.0000 electrons
 Dipole moment (field-independent basis, Debye):
    X=             -0.5901    Y=             -2.0973    Z=              0.0035  Tot=              2.1787
 Quadrupole moment (field-independent basis, Debye-Ang):
   XX=              2.4367   YY=            -11.7853   ZZ=            -18.2857
   XY=              3.3532   XZ=              0.0022   YZ=              0.0023
 Traceless Quadrupole moment (field-independent basis, Debye-Ang):
   XX=             11.6481   YY=             -2.5738   ZZ=             -9.0743
   XY=              3.3532   XZ=              0.0022   YZ=              0.0023
 Octapole moment (field-independent basis, Debye-Ang**2):
  XXX=             15.3323  YYY=             -0.0945  ZZZ=              0.0049  XYY=             -0.6907
  XXY=            -13.9892  XXZ=              0.0174  XZZ=             -8.1296  YZZ=             -0.1720
  YYZ=             -0.0049  XYZ=              0.0011
 Hexadecapole moment (field-independent basis, Debye-Ang**3):
 XXXX=            -50.4083 YYYY=            -24.7790 ZZZZ=            -13.2269 XXXY=             12.3215
 XXXZ=              0.0302 YYYX=             -3.4897 YYYZ=              0.0082 ZZZX=             -0.0064
 ZZZY=             -0.0022 XXYY=             -9.2764 XXZZ=            -24.5065 YYZZ=             -5.7125
 XXYZ=              0.0104 YYXZ=              0.0046 ZZXY=              5.9595
 N-N= 2.148427660207D+02 E-N=-4.689725447574D+03  KE= 1.792526505485D+03
                          Isotropic Fermi Contact Couplings
        Atom                 a.u.       MegaHertz       Gauss      10(-4) cm-1
     1  Cu(63)            -0.01592     -18.88410      -6.73832      -6.29906
     2  O(17)              0.09055     -54.89174     -19.58674     -18.30991
     3  O(17)              0.13262     -80.39157     -28.68571     -26.81574
     4  H(1)               0.00588      26.30096       9.38484       8.77306
     5  H(1)              -0.00018      -0.79917      -0.28516      -0.26657
     6  H(1)              -0.00049      -2.18590      -0.77998      -0.72914
     7  H(1)              -0.00048      -2.14292      -0.76465      -0.71480
 --------------------------------------------------------
       Center         ----  Spin Dipole Couplings  ----
                      3XX-RR        3YY-RR        3ZZ-RR
 --------------------------------------------------------
     1   Atom        1.570073      2.171564     -3.741637
     2   Atom        0.703082     -0.285042     -0.418040
     3   Atom        0.281637     -0.124046     -0.157591
     4   Atom        0.018396     -0.002406     -0.015990
     5   Atom        0.002844      0.012867     -0.015710
     6   Atom        0.000052     -0.010725      0.010673
     7   Atom        0.000050     -0.010633      0.010583
 --------------------------------------------------------
                        XY            XZ            YZ
 --------------------------------------------------------
     1   Atom        1.319987      0.000622     -0.001101
     2   Atom       -0.275849      0.000024     -0.000018
     3   Atom       -0.117968     -0.000487      0.000118
     4   Atom        0.009116      0.000027      0.000025
     5   Atom       -0.012703     -0.000007      0.000007
     6   Atom        0.017815     -0.020728     -0.028963
     7   Atom        0.017840      0.020706      0.029002
 --------------------------------------------------------


 ---------------------------------------------------------------------------------
              Anisotropic Spin Dipole Couplings in Principal Axis System
 ---------------------------------------------------------------------------------

       Atom             a.u.   MegaHertz   Gauss  10(-4) cm-1        Axes

              Baa    -3.7416  -529.747  -189.027  -176.705 -0.0002  0.0002  1.0000
     1 Cu(63) Bbb     0.5170    73.198    26.119    24.416  0.7817 -0.6236  0.0003
              Bcc     3.2246   456.549   162.908   152.288  0.6236  0.7817 -0.0001
 
              Baa    -0.4180    30.249    10.794    10.090  0.0000  0.0002  1.0000
     2 O(17)  Bbb    -0.3568    25.820     9.213     8.613  0.2519  0.9678 -0.0002
              Bcc     0.7749   -56.069   -20.007   -18.703  0.9678 -0.2519  0.0000
 
              Baa    -0.1576    11.403     4.069     3.804  0.0030  0.0070  1.0000
     3 O(17)  Bbb    -0.1559    11.278     4.024     3.762  0.2603  0.9655 -0.0076
              Bcc     0.3134   -22.681    -8.093    -7.566  0.9655 -0.2603 -0.0011
 
              Baa    -0.0160    -8.532    -3.044    -2.846 -0.0003 -0.0016  1.0000
     4 H(1)   Bbb    -0.0058    -3.113    -1.111    -1.039 -0.3521  0.9360  0.0014
              Bcc     0.0218    11.645     4.155     3.884  0.9360  0.3521  0.0009
 
              Baa    -0.0157    -8.382    -2.991    -2.796  0.0003 -0.0001  1.0000
     5 H(1)   Bbb    -0.0058    -3.095    -1.104    -1.032  0.8267  0.5626 -0.0002
              Bcc     0.0215    11.477     4.095     3.828 -0.5626  0.8267  0.0003
 
              Baa    -0.0313   -16.698    -5.958    -5.570 -0.1407  0.8460  0.5143
     6 H(1)   Bbb    -0.0154    -8.232    -2.937    -2.746  0.8521 -0.1610  0.4980
              Bcc     0.0467    24.930     8.896     8.316 -0.5041 -0.5083  0.6982
 
              Baa    -0.0313   -16.699    -5.959    -5.570 -0.1402  0.8451 -0.5159
     7 H(1)   Bbb    -0.0154    -8.234    -2.938    -2.746  0.8522 -0.1623 -0.4974
              Bcc     0.0467    24.932     8.897     8.317  0.5041  0.5094  0.6974
 

 ---------------------------------------------------------------------------------

 B after Tr=     0.402621   -0.000667   -1.197364
         Rot=    0.998938    0.000074    0.046076   -0.000207 Ang=   5.28 deg.
 Atom   5 needs variable   3=   0.9722160656 but is    0.9752840999
 Input z-matrix variables are not compatible with final structure.
 1\1\GINC-MILLENNIUM-FALCON\Scan\UB3LYP\6-311G(d)\Cu1H4O2(2+,2)\JAKE\17
 -Jun-2016\0\\#opt=(modredundant,maxcycles=350) B3LYP/6-311G* scf=xqc\\
 cu2(h20)2\\2,2\Cu,-0.2396536397,0.0005151285,1.2043978107\O,0.01073601
 63,0.0001619769,2.5667825753\O,1.202633829,-0.0000122233,-0.0236951615
 \H,1.1240335312,0.0011898123,-0.9958060727\H,2.1463038341,-0.000807971
 6,0.2101645541\H,0.2031485758,0.7823008588,3.1517601069\H,0.203264434,
 -0.7815275804,3.1523017854\\Version=EM64L-G09RevD.01\State=2-A\HF=-179
 2.5468,-1792.546085,-1792.5454408,-1792.5448892,-1792.544463,-1792.544
 1901,-1792.5441106,-1792.5442785,-1792.5447502,-1792.5455824,-1792.546
 8605,-1792.5487299,-1792.551181,-1792.5543655,-1792.5583725,-1792.5633
 245,-1792.5769581,-1792.5833905,-1792.5895387,-1792.5945368,-1792.5969
 958,-1792.5947793,-1792.584502,-1792.5607367,-1792.5147978,-1792.43330
 7\S2=0.761963,0.761969,0.762009,0.762091,0.762202,0.762341,0.762518,0.
 76273,0.762941,0.763097,0.763108,0.762799,0.762016,0.760486,0.758061,0
 .754632,0.753638,0.752687,0.752029,0.751622,0.751389,0.751265,0.751217
 ,0.751221,0.75126,0.75131\S2-1=0.,0.,0.,0.,0.,0.,0.,0.,0.,0.,0.,0.,0.,
 0.,0.,0.,0.,0.,0.,0.,0.,0.,0.,0.,0.,0.\S2A=0.750019,0.750018,0.750018,
 0.750018,0.750017,0.750017,0.750016,0.750016,0.750016,0.750015,0.75001
 4,0.750013,0.750012,0.75001,0.750008,0.750004,0.750003,0.750002,0.7500
 02,0.750001,0.750001,0.750001,0.750001,0.750001,0.750001,0.750001\RMSD
 =5.011e-09,6.353e-09,7.858e-09,1.785e-09,1.093e-09,5.824e-10,8.747e-09
 ,6.736e-09,9.497e-09,2.883e-09,4.015e-09,2.737e-09,4.333e-09,2.572e-09
 ,4.096e-09,7.246e-09,4.424e-09,5.189e-09,5.745e-09,8.875e-09,4.808e-09
 ,4.720e-09,3.397e-09,1.397e-09,5.250e-09,5.862e-09\PG=C01 [X(Cu1H4O2)]
 \\@


 SCIENCE IS LONG AND LIFE IS SHORT.

                     DON MOSER IN THE FEBRUARY 1979 SMITHSONIAN
 Job cpu time:       0 days  0 hours 32 minutes 39.0 seconds.
 File lengths (MBytes):  RWF=     10 Int=      0 D2E=      0 Chk=      3 Scr=      1
 Normal termination of Gaussian 09 at Fri Jun 17 13:40:53 2016.
