 Entering Gaussian System, Link 0=g09
 Input=2coord_b3lyp_A_F_145.inp
 Output=2coord_b3lyp_A_F_145.log
 Initial command:
 /usr/local/g09/l1.exe "./Gau-8480.inp" -scrdir="./"
 Entering Link 1 = /usr/local/g09/l1.exe PID=      8482.
  
 Copyright (c) 1988,1990,1992,1993,1995,1998,2003,2009,2013,
            Gaussian, Inc.  All Rights Reserved.
  
 This is part of the Gaussian(R) 09 program.  It is based on
 the Gaussian(R) 03 system (copyright 2003, Gaussian, Inc.),
 the Gaussian(R) 98 system (copyright 1998, Gaussian, Inc.),
 the Gaussian(R) 94 system (copyright 1995, Gaussian, Inc.),
 the Gaussian 92(TM) system (copyright 1992, Gaussian, Inc.),
 the Gaussian 90(TM) system (copyright 1990, Gaussian, Inc.),
 the Gaussian 88(TM) system (copyright 1988, Gaussian, Inc.),
 the Gaussian 86(TM) system (copyright 1986, Carnegie Mellon
 University), and the Gaussian 82(TM) system (copyright 1983,
 Carnegie Mellon University). Gaussian is a federally registered
 trademark of Gaussian, Inc.
  
 This software contains proprietary and confidential information,
 including trade secrets, belonging to Gaussian, Inc.
  
 This software is provided under written license and may be
 used, copied, transmitted, or stored only in accord with that
 written license.
  
 The following legend is applicable only to US Government
 contracts under FAR:
  
                    RESTRICTED RIGHTS LEGEND
  
 Use, reproduction and disclosure by the US Government is
 subject to restrictions as set forth in subparagraphs (a)
 and (c) of the Commercial Computer Software - Restricted
 Rights clause in FAR 52.227-19.
  
 Gaussian, Inc.
 340 Quinnipiac St., Bldg. 40, Wallingford CT 06492
  
  
 ---------------------------------------------------------------
 Warning -- This program may not be used in any manner that
 competes with the business of Gaussian, Inc. or will provide
 assistance to any competitor of Gaussian, Inc.  The licensee
 of this program is prohibited from giving any competitor of
 Gaussian, Inc. access to this program.  By using this program,
 the user acknowledges that Gaussian, Inc. is engaged in the
 business of creating and licensing software in the field of
 computational chemistry and represents and warrants to the
 licensee that it is not a competitor of Gaussian, Inc. and that
 it will not use this program in any manner prohibited above.
 ---------------------------------------------------------------
  

 Cite this work as:
 Gaussian 09, Revision D.01,
 M. J. Frisch, G. W. Trucks, H. B. Schlegel, G. E. Scuseria, 
 M. A. Robb, J. R. Cheeseman, G. Scalmani, V. Barone, B. Mennucci, 
 G. A. Petersson, H. Nakatsuji, M. Caricato, X. Li, H. P. Hratchian, 
 A. F. Izmaylov, J. Bloino, G. Zheng, J. L. Sonnenberg, M. Hada, 
 M. Ehara, K. Toyota, R. Fukuda, J. Hasegawa, M. Ishida, T. Nakajima, 
 Y. Honda, O. Kitao, H. Nakai, T. Vreven, J. A. Montgomery, Jr., 
 J. E. Peralta, F. Ogliaro, M. Bearpark, J. J. Heyd, E. Brothers, 
 K. N. Kudin, V. N. Staroverov, T. Keith, R. Kobayashi, J. Normand, 
 K. Raghavachari, A. Rendell, J. C. Burant, S. S. Iyengar, J. Tomasi, 
 M. Cossi, N. Rega, J. M. Millam, M. Klene, J. E. Knox, J. B. Cross, 
 V. Bakken, C. Adamo, J. Jaramillo, R. Gomperts, R. E. Stratmann, 
 O. Yazyev, A. J. Austin, R. Cammi, C. Pomelli, J. W. Ochterski, 
 R. L. Martin, K. Morokuma, V. G. Zakrzewski, G. A. Voth, 
 P. Salvador, J. J. Dannenberg, S. Dapprich, A. D. Daniels, 
 O. Farkas, J. B. Foresman, J. V. Ortiz, J. Cioslowski, 
 and D. J. Fox, Gaussian, Inc., Wallingford CT, 2013.
 
 ******************************************
 Gaussian 09:  EM64L-G09RevD.01 24-Apr-2013
                17-Jun-2016 
 ******************************************
 %mem=2GB
 %nprocshared=1
 Will use up to    1 processors via shared memory.
 %chk=pescuh2o2.chk
 -------------------------------------------------------
 #opt=(modredundant,maxcycles=350) B3LYP/6-311G* scf=xqc
 -------------------------------------------------------
 1/6=350,14=-1,18=120,19=15,26=3,38=1/1,3;
 2/9=110,12=2,17=6,18=5,40=1/2;
 3/5=4,6=6,7=1,11=2,16=1,25=1,30=1,71=1,74=-5/1,2,3;
 4//1;
 5/5=2,8=3,13=1,38=5/2,8;
 6/7=2,8=2,9=2,10=2,28=1/1;
 7//1,2,3,16;
 1/6=350,14=-1,18=20,19=15,26=3/3(2);
 2/9=110/2;
 99//99;
 2/9=110/2;
 3/5=4,6=6,7=1,11=2,16=1,25=1,30=1,71=1,74=-5/1,2,3;
 4/5=5,16=3,69=1/1;
 5/5=2,8=3,13=1,38=5/2,8;
 7//1,2,3,16;
 1/6=350,14=-1,18=20,19=15,26=3/3(-5);
 2/9=110/2;
 6/7=2,8=2,9=2,10=2,19=2,28=1/1;
 99/9=1/99;
 ---------
 cu2(h20)2
 ---------
 Symbolic Z-matrix:
 Charge =  2 Multiplicity = 2
 Cu
 O                    1    A
 O                    1    B        2    H
 H                    3    C        1    D        2    E        0
 H                    3    C        1    D        2    F        0
 H                    2    C        1    D        3    G        0
 H                    2    C        1    D        6    E        0
       Variables:
  A                     3.8852                   
  B                     1.88506                  
  C                     0.95                     
  D                   109.471                    
  E                   180.                       
  F                     0.                       
  G                    90.                       
  H                   145.                       
 
     4 tetrahedral angles replaced.
 Add virtual bond connecting atoms O2         and Cu1        Dist= 7.34D+00.
 The following ModRedundant input section has been read:
 A       2       1       3 F                                                   
 B       1       2 S  25 -0.100                                                
 

 GradGradGradGradGradGradGradGradGradGradGradGradGradGradGradGradGradGrad
 Berny optimization.
 Initialization pass.
                           ----------------------------
                           !    Initial Parameters    !
                           ! (Angstroms and Degrees)  !
 --------------------------                            --------------------------
 ! Name  Definition              Value          Derivative Info.                !
 --------------------------------------------------------------------------------
 ! R1    R(1,2)                  3.8852         Scan                            !
 ! R2    R(1,3)                  1.8851         estimate D2E/DX2                !
 ! R3    R(2,6)                  0.95           estimate D2E/DX2                !
 ! R4    R(2,7)                  0.95           estimate D2E/DX2                !
 ! R5    R(3,4)                  0.95           estimate D2E/DX2                !
 ! R6    R(3,5)                  0.95           estimate D2E/DX2                !
 ! A1    A(2,1,3)              145.0            Frozen                          !
 ! A2    A(1,2,6)              109.4712         estimate D2E/DX2                !
 ! A3    A(1,2,7)              109.4712         estimate D2E/DX2                !
 ! A4    A(6,2,7)              141.0576         estimate D2E/DX2                !
 ! A5    A(1,3,4)              109.4712         estimate D2E/DX2                !
 ! A6    A(1,3,5)              109.4712         estimate D2E/DX2                !
 ! A7    A(4,3,5)              141.0576         estimate D2E/DX2                !
 ! D1    D(3,1,2,6)             90.0            estimate D2E/DX2                !
 ! D2    D(3,1,2,7)            -90.0            estimate D2E/DX2                !
 ! D3    D(2,1,3,4)            180.0            estimate D2E/DX2                !
 ! D4    D(2,1,3,5)              0.0            estimate D2E/DX2                !
 ! D5    D(1,2,6,7)            180.0            estimate D2E/DX2                !
 ! D6    D(1,3,4,5)            180.0            estimate D2E/DX2                !
 --------------------------------------------------------------------------------
 Trust Radius=3.00D-01 FncErr=1.00D-07 GrdErr=1.00D-06
 Number of optimizations in scan=  26
 Number of steps in this run=    100 maximum allowed number of steps=    100.
 GradGradGradGradGradGradGradGradGradGradGradGradGradGradGradGradGradGrad

                          Input orientation:                          
 ---------------------------------------------------------------------
 Center     Atomic      Atomic             Coordinates (Angstroms)
 Number     Number       Type             X           Y           Z
 ---------------------------------------------------------------------
      1         29           0        0.000000    0.000000    0.000000
      2          8           0        0.000000    0.000000    3.885203
      3          8           0        1.081227    0.000000   -1.544152
      4          1           0        0.529170    0.000000   -2.317284
      5          1           0        1.996548    0.000000   -1.289815
      6          1           0        0.000000    0.895669    4.201870
      7          1           0        0.000000   -0.895669    4.201870
 ---------------------------------------------------------------------
                    Distance matrix (angstroms):
                    1          2          3          4          5
     1  Cu   0.000000
     2  O    3.885203   0.000000
     3  O    1.885061   5.535968   0.000000
     4  H    2.376936   6.225019   0.950000   0.000000
     5  H    2.376936   5.546803   0.950000   1.791337   0.000000
     6  H    4.296269   0.950000   5.915068   6.601637   5.911601
     7  H    4.296269   0.950000   5.915068   6.601637   5.911601
                    6          7
     6  H    0.000000
     7  H    1.791337   0.000000
 Stoichiometry    CuH4O2(2+,2)
 Framework group  CS[SG(CuH2O2),X(H2)]
 Deg. of freedom    10
 Full point group                 CS      NOp   2
 Largest Abelian subgroup         CS      NOp   2
 Largest concise Abelian subgroup CS      NOp   2
                         Standard orientation:                         
 ---------------------------------------------------------------------
 Center     Atomic      Atomic             Coordinates (Angstroms)
 Number     Number       Type             X           Y           Z
 ---------------------------------------------------------------------
      1         29           0        0.000000    0.531522    0.000000
      2          8           0       -1.667111   -2.977829    0.000000
      3          8           0        1.639213    1.462348    0.000000
      4          1           0        1.472307    2.397571    0.000000
      5          1           0        2.356853    0.839858    0.000000
      6          1           0       -1.802990   -3.263861    0.895669
      7          1           0       -1.802990   -3.263861   -0.895669
 ---------------------------------------------------------------------
 Rotational constants (GHZ):     32.8237255      1.6247635      1.5636219
 Standard basis: 6-311G(d) (5D, 7F)
 There are    74 symmetry adapted cartesian basis functions of A'  symmetry.
 There are    28 symmetry adapted cartesian basis functions of A"  symmetry.
 There are    67 symmetry adapted basis functions of A'  symmetry.
 There are    27 symmetry adapted basis functions of A"  symmetry.
    94 basis functions,   165 primitive gaussians,   102 cartesian basis functions
    24 alpha electrons       23 beta electrons
       nuclear repulsion energy       144.5304745409 Hartrees.
 NAtoms=    7 NActive=    7 NUniq=    6 SFac= 1.36D+00 NAtFMM=   60 NAOKFM=F Big=F
 Integral buffers will be    131072 words long.
 Raffenetti 2 integral format.
 Two-electron integral symmetry is turned on.
 One-electron integrals computed using PRISM.
 NBasis=    94 RedAO= T EigKep=  1.33D-02  NBF=    67    27
 NBsUse=    94 1.00D-06 EigRej= -1.00D+00 NBFU=    67    27
 ExpMin= 4.08D-02 ExpMax= 3.37D+05 ExpMxC= 1.14D+04 IAcc=2 IRadAn=         4 AccDes= 0.00D+00
 Harris functional with IExCor=  402 and IRadAn=       4 diagonalized for initial guess.
 HarFok:  IExCor=  402 AccDes= 0.00D+00 IRadAn=         4 IDoV= 1 UseB2=F ITyADJ=14
 ICtDFT=  3500011 ScaDFX=  1.000000  1.000000  1.000000  1.000000
 FoFCou: FMM=F IPFlag=           0 FMFlag=      100000 FMFlg1=           0
         NFxFlg=           0 DoJE=T BraDBF=F KetDBF=T FulRan=T
         wScrn=  0.000000 ICntrl=     500 IOpCl=  0 I1Cent=   200000004 NGrid=           0
         NMat0=    1 NMatS0=      1 NMatT0=    0 NMatD0=    1 NMtDS0=    0 NMtDT0=    0
 Petite list used in FoFCou.
 Initial guess orbital symmetries:
 Alpha Orbitals:
       Occupied  (A') (A') (A') (A') (A") (A') (A') (A') (A') (A')
                 (A") (A') (A') (A') (A") (A') (A") (A') (A') (A')
                 (A') (A') (A") (A")
       Virtual   (A') (A') (A') (A') (A") (A') (A') (A') (A') (A")
                 (A") (A') (A') (A') (A') (A") (A') (A') (A") (A')
                 (A') (A") (A') (A") (A') (A') (A') (A') (A') (A")
                 (A") (A") (A") (A') (A') (A') (A') (A") (A') (A')
                 (A') (A') (A") (A') (A") (A') (A") (A') (A") (A')
                 (A') (A') (A") (A') (A") (A') (A") (A') (A') (A")
                 (A') (A') (A') (A") (A') (A') (A') (A') (A') (A')
 Beta  Orbitals:
       Occupied  (A') (A') (A') (A') (A") (A') (A') (A') (A') (A')
                 (A") (A') (A') (A') (A") (A') (A") (A') (A') (A')
                 (A') (A') (A")
       Virtual   (A") (A') (A') (A') (A') (A") (A') (A') (A') (A')
                 (A") (A") (A') (A') (A') (A') (A") (A') (A') (A")
                 (A') (A') (A") (A') (A") (A') (A') (A') (A') (A')
                 (A") (A") (A") (A") (A') (A') (A') (A') (A") (A')
                 (A') (A') (A') (A") (A') (A") (A') (A") (A') (A")
                 (A') (A') (A') (A") (A') (A") (A') (A") (A') (A')
                 (A") (A') (A') (A') (A") (A') (A') (A') (A') (A')
                 (A')
 The electronic state of the initial guess is 2-A".
 Initial guess <Sx>= 0.0000 <Sy>= 0.0000 <Sz>= 0.5000 <S**2>= 0.7500 S= 0.5000
 Keep R1 and R2 ints in memory in symmetry-blocked form, NReq=15545797.
 Requested convergence on RMS density matrix=1.00D-08 within  64 cycles.
 Requested convergence on MAX density matrix=1.00D-06.
 Requested convergence on             energy=1.00D-06.
 No special actions if energy rises.
 EnCoef did   100 forward-backward iterations
 EnCoef did   100 forward-backward iterations
 EnCoef did   100 forward-backward iterations
 EnCoef did   100 forward-backward iterations
 EnCoef did     9 forward-backward iterations
 EnCoef did    51 forward-backward iterations
 EnCoef did   100 forward-backward iterations
 EnCoef did   100 forward-backward iterations
 EnCoef did   100 forward-backward iterations
 EnCoef did   100 forward-backward iterations
 EnCoef did   100 forward-backward iterations
 Rare condition: small coef for last iteration:  0.417D-15
 EnCoef did   100 forward-backward iterations
 Rare condition: small coef for last iteration:  0.685D-16
 EnCoef did   100 forward-backward iterations
 EnCoef did   100 forward-backward iterations
 EnCoef did   100 forward-backward iterations
 EnCoef did   100 forward-backward iterations
 EnCoef did   100 forward-backward iterations
 Rare condition: small coef for last iteration:  0.000D+00
 EnCoef did   100 forward-backward iterations
 EnCoef did   100 forward-backward iterations
 Rare condition: small coef for last iteration: -0.822D-15
 EnCoef did   100 forward-backward iterations
 EnCoef did   100 forward-backward iterations
 EnCoef did   100 forward-backward iterations
 EnCoef did   100 forward-backward iterations
 EnCoef did   100 forward-backward iterations
 EnCoef did   100 forward-backward iterations
 EnCoef did   100 forward-backward iterations
 EnCoef did   100 forward-backward iterations
 Rare condition: small coef for last iteration:  0.125D-14
 EnCoef did    51 forward-backward iterations
 EnCoef did   100 forward-backward iterations
 EnCoef did   100 forward-backward iterations
 EnCoef did   100 forward-backward iterations
 EnCoef did   100 forward-backward iterations
 EnCoef did   100 forward-backward iterations
 EnCoef did   100 forward-backward iterations
 EnCoef did   100 forward-backward iterations
 Rare condition: small coef for last iteration:  0.000D+00
 Rare condition: small coef for last iteration:  0.000D+00
 Rare condition: small coef for last iteration:  0.000D+00
 Rare condition: small coef for last iteration:  0.000D+00
 Rare condition: small coef for last iteration:  0.000D+00
 Rare condition: small coef for last iteration:  0.000D+00
 Rare condition: small coef for last iteration:  0.000D+00
 Rare condition: small coef for last iteration:  0.000D+00
 Rare condition: small coef for last iteration:  0.000D+00
 >>>>>>>>>> Convergence criterion not met.
 SCF Done:  E(UB3LYP) =  -1792.39699412     A.U. after   65 cycles
            NFock= 64  Conv=0.43D-05     -V/T= 1.9987
 <Sx>= 0.0000 <Sy>= 0.0000 <Sz>= 0.5000 <S**2>= 0.7516 S= 0.5008
 <L.S>= 0.000000000000E+00
 Annihilation of the first spin contaminant:
 S**2 before annihilation     0.7516,   after     0.7500
 Keep R1 and R2 ints in memory in symmetry-blocked form, NReq=15602405.
 Gradient too large for Newton-Raphson -- use scaled steepest descent instead.
  Beta Gap=    -0.397 HL deriv= 2.52D-17 Rot set to   7.83D-01
     Minimum is close to point  2 DX=  6.15D-03 DF= -2.35D-05 DXR=  2.01D-02 DFR=  4.04D-04 which will be used.
 Gradient too large for Newton-Raphson -- use scaled steepest descent instead.
     Accept linear search using points  2 and  3.
 Gradient too large for Newton-Raphson -- use scaled steepest descent instead.
     Accept linear search using points  2 and  3.
 Gradient too large for Newton-Raphson -- use scaled steepest descent instead.
 Gradient too large for Newton-Raphson -- use scaled steepest descent instead.
     Accept linear search using points  1 and  2.
 Gradient too large for Newton-Raphson -- use scaled steepest descent instead.
     Accept linear search using points  3 and  4.
     Minimum is close to point  4 DX= -1.52D-01 DF= -2.64D-05 DXR=  9.85D-02 DFR=  7.19D-03 which will be used.
 Gradient too large for Newton-Raphson -- use scaled steepest descent instead.
     Minimum is close to point  3 DX=  6.55D-03 DF= -1.94D-06 DXR=  2.14D-02 DFR=  4.56D-04 which will be used.
 Gradient too large for Newton-Raphson -- use scaled steepest descent instead.
     Accept linear search using points  4 and  5.
 Gradient too large for Newton-Raphson -- use scaled steepest descent instead.
     Minimum is close to point  3 DX= -1.27D-02 DF= -1.15D-05 DXR=  4.41D-02 DFR=  1.95D-03 which will be used.
 Gradient too large for Newton-Raphson -- use scaled steepest descent instead.
 Gradient too large for Newton-Raphson -- use scaled steepest descent instead.
     Accept linear search using points  1 and  2.
 Gradient too large for Newton-Raphson -- use scaled steepest descent instead.
 Gradient too large for Newton-Raphson -- use scaled steepest descent instead.
     Accept linear search using points  1 and  2.
 Gradient too large for Newton-Raphson -- use scaled steepest descent instead.
 Gradient too large for Newton-Raphson -- use scaled steepest descent instead.
     Accept linear search using points  1 and  2.
 LinEq1:  Iter=  0 NonCon=     1 RMS=3.77D-04 Max=1.95D-02 NDo=     1
 AX will form     1 AO Fock derivatives at one time.
 LinEq1:  Iter=  1 NonCon=     1 RMS=2.39D-03 Max=6.38D-02 NDo=     1
 LinEq1:  Iter=  2 NonCon=     1 RMS=1.05D-03 Max=3.31D-02 NDo=     1
 LinEq1:  Iter=  3 NonCon=     1 RMS=1.38D-03 Max=4.05D-02 NDo=     1
 LinEq1:  Iter=  4 NonCon=     1 RMS=5.01D-04 Max=1.05D-02 NDo=     1
 LinEq1:  Iter=  5 NonCon=     1 RMS=3.06D-04 Max=1.03D-02 NDo=     1
 LinEq1:  Iter=  6 NonCon=     1 RMS=1.30D-04 Max=3.42D-03 NDo=     1
 LinEq1:  Iter=  7 NonCon=     1 RMS=3.43D-05 Max=5.25D-04 NDo=     1
 LinEq1:  Iter=  8 NonCon=     1 RMS=2.38D-05 Max=4.42D-04 NDo=     1
 LinEq1:  Iter=  9 NonCon=     1 RMS=1.39D-05 Max=4.23D-04 NDo=     1
 LinEq1:  Iter= 10 NonCon=     1 RMS=2.98D-06 Max=6.94D-05 NDo=     1
 LinEq1:  Iter= 11 NonCon=     1 RMS=1.02D-06 Max=3.17D-05 NDo=     1
 LinEq1:  Iter= 12 NonCon=     1 RMS=3.37D-07 Max=1.15D-05 NDo=     1
 LinEq1:  Iter= 13 NonCon=     1 RMS=8.86D-08 Max=1.60D-06 NDo=     1
 LinEq1:  Iter= 14 NonCon=     1 RMS=2.13D-08 Max=4.89D-07 NDo=     1
 LinEq1:  Iter= 15 NonCon=     1 RMS=9.64D-09 Max=3.29D-07 NDo=     1
 LinEq1:  Iter= 16 NonCon=     0 RMS=2.96D-09 Max=5.04D-08 NDo=     1
 Linear equations converged to 5.756D-09 5.756D-08 after    16 iterations.
     Accept linear search using points  1 and  2.
     Minimum is close to point  2 DX= -2.07D-02 DF= -2.27D-08 DXR=  2.11D-02 DFR=  4.54D-04 which will be used.
 LinEq1:  Iter=  0 NonCon=     1 RMS=1.31D-04 Max=7.52D-03 NDo=     1
 LinEq1:  Iter=  1 NonCon=     1 RMS=8.15D-05 Max=3.36D-03 NDo=     1
 LinEq1:  Iter=  2 NonCon=     1 RMS=2.28D-05 Max=5.90D-04 NDo=     1
 LinEq1:  Iter=  3 NonCon=     1 RMS=8.78D-06 Max=2.55D-04 NDo=     1
 LinEq1:  Iter=  4 NonCon=     1 RMS=9.03D-06 Max=3.13D-04 NDo=     1
 LinEq1:  Iter=  5 NonCon=     1 RMS=7.10D-06 Max=1.45D-04 NDo=     1
 LinEq1:  Iter=  6 NonCon=     1 RMS=3.49D-06 Max=8.36D-05 NDo=     1
 LinEq1:  Iter=  7 NonCon=     1 RMS=3.58D-06 Max=6.67D-05 NDo=     1
 LinEq1:  Iter=  8 NonCon=     1 RMS=9.67D-07 Max=2.27D-05 NDo=     1
 LinEq1:  Iter=  9 NonCon=     1 RMS=3.42D-07 Max=1.16D-05 NDo=     1
 LinEq1:  Iter= 10 NonCon=     1 RMS=1.08D-07 Max=3.63D-06 NDo=     1
 LinEq1:  Iter= 11 NonCon=     1 RMS=3.36D-08 Max=5.81D-07 NDo=     1
 LinEq1:  Iter= 12 NonCon=     1 RMS=6.35D-09 Max=1.22D-07 NDo=     1
 LinEq1:  Iter= 13 NonCon=     0 RMS=1.89D-09 Max=4.30D-08 NDo=     1
 Linear equations converged to 4.877D-09 4.877D-08 after    13 iterations.
     Minimum is close to point  2 DX=  1.75D-02 DF= -2.93D-11 DXR=  1.72D-02 DFR=  2.96D-04 which will be used.
 LinEq1:  Iter=  0 NonCon=     1 RMS=6.68D-07 Max=3.81D-05 NDo=     1
 LinEq1:  Iter=  1 NonCon=     1 RMS=1.50D-06 Max=6.39D-05 NDo=     1
 LinEq1:  Iter=  2 NonCon=     1 RMS=4.09D-07 Max=1.43D-05 NDo=     1
 LinEq1:  Iter=  3 NonCon=     1 RMS=4.65D-07 Max=1.36D-05 NDo=     1
 LinEq1:  Iter=  4 NonCon=     1 RMS=2.45D-07 Max=4.93D-06 NDo=     1
 LinEq1:  Iter=  5 NonCon=     1 RMS=1.46D-07 Max=2.57D-06 NDo=     1
 LinEq1:  Iter=  6 NonCon=     1 RMS=1.17D-07 Max=3.19D-06 NDo=     1
 LinEq1:  Iter=  7 NonCon=     1 RMS=3.67D-08 Max=7.79D-07 NDo=     1
 LinEq1:  Iter=  8 NonCon=     1 RMS=1.12D-08 Max=3.57D-07 NDo=     1
 LinEq1:  Iter=  9 NonCon=     1 RMS=4.30D-09 Max=1.52D-07 NDo=     1
 LinEq1:  Iter= 10 NonCon=     1 RMS=1.45D-09 Max=3.25D-08 NDo=     1
 LinEq1:  Iter= 11 NonCon=     1 RMS=4.45D-10 Max=1.15D-08 NDo=     1
 LinEq1:  Iter= 12 NonCon=     1 RMS=9.92D-11 Max=1.34D-09 NDo=     1
 LinEq1:  Iter= 13 NonCon=     1 RMS=2.59D-11 Max=6.27D-10 NDo=     1
 LinEq1:  Iter= 14 NonCon=     1 RMS=1.05D-11 Max=3.72D-10 NDo=     1
 LinEq1:  Iter= 15 NonCon=     0 RMS=4.51D-12 Max=1.22D-10 NDo=     1
 Linear equations converged to 2.688D-11 2.688D-10 after    15 iterations.
 Density matrix breaks symmetry, PCut= 1.00D-04
 Density matrix has no symmetry -- integrals replicated.
 Density matrix is not symmetric, so final MOs not symmetrized.
 SCF Done:  E(UB3LYP) =  -1792.49487821     a.u. after   19 cycles
            Convg  =    0.4620D-08                    93 Fock formations.
              S**2 =  0.7524                  -V/T =  2.0006
 <Sx>= 0.0000 <Sy>= 0.0000 <Sz>= 0.5000 <S**2>= 0.7524 S= 0.5012
 <L.S>= 0.000000000000E+00
 Annihilation of the first spin contaminant:
 S**2 before annihilation     0.7524,   after     0.7500

 **********************************************************************

            Population analysis using the SCF density.

 **********************************************************************

 Orbital symmetries:
 Alpha Orbitals:
       Occupied  (A') (A') (?A) (?A) (A') (A') (A') (A') (?A) (?A)
                 (A') (A') (A') (A') (A") (A') (A") (A') (A') (A")
                 (A") (A") (A") (A')
       Virtual   (A') (A') (A') (A') (A") (A') (A') (A') (A') (A")
                 (A') (A") (A') (A') (A') (A") (A') (A') (A") (A')
                 (?A) (?A) (?A) (?A) (A') (A') (A') (A') (A') (A")
                 (A") (A") (A') (A') (A") (A') (A') (A") (A') (A')
                 (A') (?B) (?B) (?B) (?B) (?B) (A') (A') (A') (A")
                 (A') (A') (A") (A') (?C) (?C) (?C) (A') (A') (A")
                 (A') (A') (A') (A") (A') (A') (A') (A') (A') (A')
 Beta  Orbitals:
       Occupied  (A') (A') (?A) (?A) (A') (A') (A') (A') (?A) (?A)
                 (A') (A') (A') (A') (A") (A') (A") (A') (A") (A")
                 (A") (A") (A")
       Virtual   (A") (A') (A') (A') (A') (A") (A') (A') (A') (A')
                 (A") (A') (A") (A') (A') (A') (A") (A') (A') (A")
                 (A') (?A) (?A) (A') (A") (A') (A') (A') (A') (A')
                 (A") (A") (A") (A") (A') (A') (A') (A') (A") (A')
                 (A') (A') (?B) (?B) (?B) (?B) (?A) (?A) (A') (A")
                 (A') (A') (A') (A") (A') (?A) (?A) (A") (A') (A')
                 (A") (A') (A') (A') (A") (A') (A') (A') (A') (A')
                 (A')
 Unable to determine electronic state:  an orbital has unidentified symmetry.
 Alpha  occ. eigenvalues -- -323.44174 -39.23601 -34.46283 -34.46178 -34.44663
 Alpha  occ. eigenvalues --  -19.56988 -19.56465  -4.77178  -3.28035  -3.27817
 Alpha  occ. eigenvalues --   -3.24731  -1.45389  -1.44707  -1.03172  -1.01454
 Alpha  occ. eigenvalues --   -0.86062  -0.80014  -0.77915  -0.76678  -0.74925
 Alpha  occ. eigenvalues --   -0.74875  -0.74790  -0.73981  -0.72413
 Alpha virt. eigenvalues --   -0.49868  -0.31724  -0.30654  -0.23521  -0.20969
 Alpha virt. eigenvalues --   -0.18590  -0.04278  -0.02307   0.04922   0.11974
 Alpha virt. eigenvalues --    0.28838   0.30960   0.33916   0.37091   0.43845
 Alpha virt. eigenvalues --    0.52606   0.68846   0.74257   0.83127   0.86856
 Alpha virt. eigenvalues --    0.99419   0.99449   1.01338   1.01988   1.22073
 Alpha virt. eigenvalues --    1.28353   1.54209   1.56350   1.72812   1.73379
 Alpha virt. eigenvalues --    2.27326   2.28535   2.35263   2.35417   2.37567
 Alpha virt. eigenvalues --    2.53516   2.69919   2.72928   2.73029   3.03224
 Alpha virt. eigenvalues --    3.04388   3.48587   3.48684   3.48880   3.50232
 Alpha virt. eigenvalues --    3.50253   3.51386   3.51816   4.26532   4.29715
 Alpha virt. eigenvalues --    4.34929   4.44543   4.64370   4.67367   6.71115
 Alpha virt. eigenvalues --    6.71176   6.71499   6.78259   6.83826   8.79475
 Alpha virt. eigenvalues --    8.87477   9.10616  31.49733  42.25742  42.31549
 Alpha virt. eigenvalues --   42.46872  49.26191  49.29644 183.56446 978.81999
  Beta  occ. eigenvalues -- -323.44175 -39.22510 -34.45102 -34.44980 -34.44389
  Beta  occ. eigenvalues --  -19.56285 -19.55547  -4.74934  -3.24815  -3.24619
  Beta  occ. eigenvalues --   -3.23995  -1.44979  -1.41032  -1.03053  -1.00451
  Beta  occ. eigenvalues --   -0.85770  -0.76117  -0.75131  -0.73953  -0.73748
  Beta  occ. eigenvalues --   -0.73650  -0.71456  -0.65742
  Beta virt. eigenvalues --   -0.63143  -0.49601  -0.31603  -0.30170  -0.23485
  Beta virt. eigenvalues --   -0.20703  -0.18466  -0.04189  -0.01991   0.04948
  Beta virt. eigenvalues --    0.12122   0.29143   0.31604   0.37865   0.38404
  Beta virt. eigenvalues --    0.43953   0.53316   0.69144   0.76177   0.84397
  Beta virt. eigenvalues --    0.87124   0.99792   0.99903   1.01892   1.04731
  Beta virt. eigenvalues --    1.22422   1.29096   1.54517   1.56468   1.72799
  Beta virt. eigenvalues --    1.73261   2.29078   2.32081   2.38142   2.39691
  Beta virt. eigenvalues --    2.39954   2.54123   2.70012   2.73695   2.74168
  Beta virt. eigenvalues --    3.04348   3.05614   3.50415   3.50591   3.50757
  Beta virt. eigenvalues --    3.50833   3.51384   3.51947   3.52306   4.30456
  Beta virt. eigenvalues --    4.32918   4.36182   4.44731   4.65654   4.67519
  Beta virt. eigenvalues --    6.72034   6.72075   6.75887   6.79171   6.84606
  Beta virt. eigenvalues --    8.81429   8.87985   9.12556  31.51186  42.27275
  Beta virt. eigenvalues --   42.31974  42.48413  49.27645  49.29823 183.56992
  Beta virt. eigenvalues --  978.82106
          Condensed to atoms (all electrons):
               1          2          3          4          5          6
     1  Cu  27.659997   0.005199   0.113409  -0.005628  -0.005549  -0.000334
     2  O    0.005199   8.049966   0.000000  -0.000002  -0.000009   0.249565
     3  O    0.113409   0.000000   8.325064   0.243693   0.244341   0.000000
     4  H   -0.005628  -0.000002   0.243693   0.194867  -0.008824   0.000000
     5  H   -0.005549  -0.000009   0.244341  -0.008824   0.199105   0.000000
     6  H   -0.000334   0.249565   0.000000   0.000000   0.000000   0.211432
     7  H   -0.000334   0.249565   0.000000   0.000000   0.000000  -0.011024
               7
     1  Cu  -0.000334
     2  O    0.249565
     3  O    0.000000
     4  H    0.000000
     5  H    0.000000
     6  H   -0.011024
     7  H    0.211431
          Atomic-Atomic Spin Densities.
               1          2          3          4          5          6
     1  Cu   0.411650  -0.000336  -0.007394   0.000059   0.000045   0.000023
     2  O   -0.000336   0.585991   0.000000   0.000000   0.000001  -0.006669
     3  O   -0.007394   0.000000   0.067938  -0.000495  -0.000483   0.000000
     4  H    0.000059   0.000000  -0.000495  -0.001547   0.000016   0.000000
     5  H    0.000045   0.000001  -0.000483   0.000016  -0.001567   0.000000
     6  H    0.000023  -0.006669   0.000000   0.000000   0.000000  -0.009959
     7  H    0.000023  -0.006669   0.000000   0.000000   0.000000   0.000607
               7
     1  Cu   0.000023
     2  O   -0.006669
     3  O    0.000000
     4  H    0.000000
     5  H    0.000000
     6  H    0.000607
     7  H   -0.009959
 Mulliken charges and spin densities:
               1          2
     1  Cu   1.233240   0.404070
     2  O   -0.554284   0.572317
     3  O   -0.926507   0.059566
     4  H    0.575893  -0.001967
     5  H    0.570936  -0.001989
     6  H    0.550361  -0.015999
     7  H    0.550362  -0.015998
 Sum of Mulliken charges =   2.00000   1.00000
 Mulliken charges and spin densities with hydrogens summed into heavy atoms:
               1          2
     1  Cu   1.233240   0.404070
     2  O    0.546439   0.540320
     3  O    0.220321   0.055610
 Electronic spatial extent (au):  <R**2>=            650.6780
 Charge=              2.0000 electrons
 Dipole moment (field-independent basis, Debye):
    X=             -1.8453    Y=             -3.8230    Z=             -0.0001  Tot=              4.2451
 Quadrupole moment (field-independent basis, Debye-Ang):
   XX=             -0.0697   YY=             23.1240   ZZ=            -16.5705
   XY=             23.5093   XZ=             -0.0007   YZ=              0.0002
 Traceless Quadrupole moment (field-independent basis, Debye-Ang):
   XX=             -2.2309   YY=             20.9628   ZZ=            -18.7318
   XY=             23.5093   XZ=             -0.0007   YZ=              0.0002
 Octapole moment (field-independent basis, Debye-Ang**2):
  XXX=              6.0116  YYY=            -74.6760  ZZZ=             -0.0005  XYY=            -49.6652
  XXY=            -19.3716  XXZ=              0.0040  XZZ=             -9.6404  YZZ=            -11.4695
  YYZ=             -0.0037  XYZ=              0.0031
 Hexadecapole moment (field-independent basis, Debye-Ang**3):
 XXXX=           -112.2949 YYYY=             33.6422 ZZZZ=            -11.2297 XXXY=            -46.0974
 XXXZ=             -0.0111 YYYX=            117.1595 YYYZ=              0.0154 ZZZX=             -0.0020
 ZZZY=              0.0006 XXYY=             30.9140 XXZZ=            -25.3472 YYZZ=            -27.5602
 XXYZ=             -0.0090 YYXZ=             -0.0048 ZZXY=            -19.8673
 N-N= 1.445304745409D+02 E-N=-4.554790946233D+03  KE= 1.791499923710D+03
 Symmetry A'   KE= 1.565842568185D+03
 Symmetry A"   KE= 2.256573555250D+02
                          Isotropic Fermi Contact Couplings
        Atom                 a.u.       MegaHertz       Gauss      10(-4) cm-1
     1  Cu(63)            -0.13598    -161.28850     -57.55175     -53.80005
     2  O(17)              0.06318     -38.29972     -13.66629     -12.77541
     3  O(17)              0.01108      -6.71552      -2.39626      -2.24006
     4  H(1)              -0.00109      -4.86478      -1.73587      -1.62271
     5  H(1)              -0.00109      -4.86979      -1.73766      -1.62439
     6  H(1)              -0.00864     -38.64190     -13.78839     -12.88955
     7  H(1)              -0.00864     -38.64198     -13.78842     -12.88958
 --------------------------------------------------------
       Center         ----  Spin Dipole Couplings  ----
                      3XX-RR        3YY-RR        3ZZ-RR
 --------------------------------------------------------
     1   Atom        0.276075     -1.201361      0.925286
     2   Atom        1.622953     -0.504118     -1.118835
     3   Atom       -0.128289     -0.143049      0.271338
     4   Atom       -0.007532      0.016006     -0.008474
     5   Atom        0.011851     -0.003233     -0.008618
     6   Atom       -0.033120     -0.048600      0.081720
     7   Atom       -0.033159     -0.048561      0.081720
 --------------------------------------------------------
                        XY            XZ            YZ
 --------------------------------------------------------
     1   Atom        1.220561      0.006950     -0.006130
     2   Atom       -1.303503      0.002432     -0.001154
     3   Atom        0.013378      0.002846      0.001223
     4   Atom        0.002742      0.000035      0.000010
     5   Atom       -0.008353      0.000005      0.000043
     6   Atom       -0.009463     -0.022779     -0.047792
     7   Atom       -0.009495      0.022596      0.047879
 --------------------------------------------------------


 ---------------------------------------------------------------------------------
              Anisotropic Spin Dipole Couplings in Principal Axis System
 ---------------------------------------------------------------------------------

       Atom             a.u.   MegaHertz   Gauss  10(-4) cm-1        Axes

              Baa    -1.8894  -267.500   -95.451   -89.228 -0.4910  0.8711  0.0031
     1 Cu(63) Bbb     0.9251   130.974    46.735    43.688 -0.0663 -0.0409  0.9970
              Bcc     0.9643   136.526    48.716    45.540  0.8686  0.4893  0.0779
 
              Baa    -1.1229    81.253    28.993    27.103  0.4288  0.9034  0.0000
     2 O(17)  Bbb    -1.1188    80.958    28.888    27.005 -0.0007  0.0004  1.0000
              Bcc     2.2417  -162.211   -57.881   -54.108  0.9034 -0.4288  0.0008
 
              Baa    -0.1509    10.923     3.897     3.643 -0.5085  0.8611  0.0009
     3 O(17)  Bbb    -0.1204     8.713     3.109     2.906  0.8610  0.5085 -0.0078
              Bcc     0.2714   -19.636    -7.006    -6.550  0.0072  0.0032  1.0000
 
              Baa    -0.0085    -4.522    -1.614    -1.508 -0.0528  0.0055  0.9986
     4 H(1)   Bbb    -0.0078    -4.186    -1.494    -1.396  0.9921 -0.1141  0.0531
              Bcc     0.0163     8.708     3.107     2.905  0.1142  0.9935  0.0006
 
              Baa    -0.0086    -4.599    -1.641    -1.534 -0.0095 -0.0227  0.9997
     5 H(1)   Bbb    -0.0069    -3.705    -1.322    -1.236  0.4060  0.9135  0.0246
              Bcc     0.0156     8.304     2.963     2.770  0.9138 -0.4061 -0.0005
 
              Baa    -0.0714   -38.091   -13.592   -12.706  0.4056  0.8536  0.3268
     6 H(1)   Bbb    -0.0286   -15.278    -5.452    -5.096  0.9032 -0.4293  0.0005
              Bcc     0.1000    53.369    19.043    17.802 -0.1407 -0.2949  0.9451
 
              Baa    -0.0714   -38.091   -13.592   -12.706  0.4052  0.8538 -0.3268
     7 H(1)   Bbb    -0.0286   -15.278    -5.452    -5.096  0.9036 -0.4284  0.0009
              Bcc     0.1000    53.370    19.044    17.802  0.1393  0.2956  0.9451
 

 ---------------------------------------------------------------------------------

 Density matrix is not symmetric, so symmetry will not be used here.
 Density matrix is not symmetric, so symmetry will not be used here.
 Calling FoFJK, ICntrl=      2127 FMM=F ISym2X=0 I1Cent= 0 IOpClX= 1 NMat=1 NMatS=1 NMatT=0.
 ***** Axes restored to original set *****
 -------------------------------------------------------------------
 Center     Atomic                   Forces (Hartrees/Bohr)
 Number     Number              X              Y              Z
 -------------------------------------------------------------------
      1       29          -0.005788143    0.000031789    0.003027304
      2        8           0.000027323   -0.000008103   -0.073113697
      3        8          -0.045814225    0.000004482    0.068248859
      4        1           0.026397165   -0.000002762   -0.037626710
      5        1           0.025385674   -0.000025280   -0.038775525
      6        1          -0.000130297    0.007992691    0.039119899
      7        1          -0.000077497   -0.007992817    0.039119870
 -------------------------------------------------------------------
 Cartesian Forces:  Max     0.073113697 RMS     0.030545990

 GradGradGradGradGradGradGradGradGradGradGradGradGradGradGradGradGradGrad
 Berny optimization.
 FormGI is forming the generalized inverse of G from B-inverse, IUseBI=4.
 Internal  Forces:  Max     0.052355668 RMS     0.020566213
 Search for a local minimum.
 Step number   1 out of a maximum of  100 on scan point     1 out of    26
 All quantities printed in internal units (Hartrees-Bohrs-Radians)
 Mixed Optimization -- RFO/linear search
 Second derivative matrix not updated -- first step.
 The second derivative matrix:
                          R1        R2        R3        R4        R5
           R1           0.00858
           R2           0.00000   0.19001
           R3           0.00000   0.00000   0.57681
           R4           0.00000   0.00000   0.00000   0.57681
           R5           0.00000   0.00000   0.00000   0.00000   0.57681
           R6           0.00000   0.00000   0.00000   0.00000   0.00000
           A1           0.00000   0.00000   0.00000   0.00000   0.00000
           A2           0.00000   0.00000   0.00000   0.00000   0.00000
           A3           0.00000   0.00000   0.00000   0.00000   0.00000
           A4           0.00000   0.00000   0.00000   0.00000   0.00000
           A5           0.00000   0.00000   0.00000   0.00000   0.00000
           A6           0.00000   0.00000   0.00000   0.00000   0.00000
           A7           0.00000   0.00000   0.00000   0.00000   0.00000
           D1           0.00000   0.00000   0.00000   0.00000   0.00000
           D2           0.00000   0.00000   0.00000   0.00000   0.00000
           D3           0.00000   0.00000   0.00000   0.00000   0.00000
           D4           0.00000   0.00000   0.00000   0.00000   0.00000
           D5           0.00000   0.00000   0.00000   0.00000   0.00000
           D6           0.00000   0.00000   0.00000   0.00000   0.00000
                          R6        A1        A2        A3        A4
           R6           0.57681
           A1           0.00000   0.25000
           A2           0.00000   0.00000   0.16000
           A3           0.00000   0.00000   0.00000   0.16000
           A4           0.00000   0.00000   0.00000   0.00000   0.16000
           A5           0.00000   0.00000   0.00000   0.00000   0.00000
           A6           0.00000   0.00000   0.00000   0.00000   0.00000
           A7           0.00000   0.00000   0.00000   0.00000   0.00000
           D1           0.00000   0.00000   0.00000   0.00000   0.00000
           D2           0.00000   0.00000   0.00000   0.00000   0.00000
           D3           0.00000   0.00000   0.00000   0.00000   0.00000
           D4           0.00000   0.00000   0.00000   0.00000   0.00000
           D5           0.00000   0.00000   0.00000   0.00000   0.00000
           D6           0.00000   0.00000   0.00000   0.00000   0.00000
                          A5        A6        A7        D1        D2
           A5           0.16000
           A6           0.00000   0.16000
           A7           0.00000   0.00000   0.16000
           D1           0.00000   0.00000   0.00000   0.00230
           D2           0.00000   0.00000   0.00000   0.00000   0.00230
           D3           0.00000   0.00000   0.00000   0.00000   0.00000
           D4           0.00000   0.00000   0.00000   0.00000   0.00000
           D5           0.00000   0.00000   0.00000   0.00000   0.00000
           D6           0.00000   0.00000   0.00000   0.00000   0.00000
                          D3        D4        D5        D6
           D3           0.03612
           D4           0.00000   0.03612
           D5           0.00000   0.00000   0.01690
           D6           0.00000   0.00000   0.00000   0.01690
 ITU=  0
     Eigenvalues ---    0.00230   0.01424   0.02039   0.03612   0.16000
     Eigenvalues ---    0.16000   0.16000   0.16000   0.19001   0.57681
     Eigenvalues ---    0.57681   0.57681   0.576811000.000001000.00000
     Eigenvalues --- 1000.000001000.000001000.000001000.00000
 RFO step:  Lambda=-3.63038951D-02 EMin= 2.30000000D-03
 Linear search not attempted -- first point.
 Maximum step size (   0.300) exceeded in Quadratic search.
    -- Step size scaled by   0.712
 Iteration  1 RMS(Cart)=  0.07573214 RMS(Int)=  0.00319592
 Iteration  2 RMS(Cart)=  0.00318887 RMS(Int)=  0.00002124
 Iteration  3 RMS(Cart)=  0.00000338 RMS(Int)=  0.00002097
 Iteration  4 RMS(Cart)=  0.00000000 RMS(Int)=  0.00002097
 Iteration  1 RMS(Cart)=  0.00000000 RMS(Int)=  0.00000000
 Variable       Old X    -DE/DX   Delta X   Delta X   Delta X     New X
                                 (Linear)    (Quad)   (Total)
    R1        7.34197   0.00514   0.00000   0.00000   0.00000   7.34197
    R2        3.56225   0.01008   0.00000   0.03173   0.03173   3.59398
    R3        1.79524   0.02058   0.00000   0.02390   0.02390   1.81914
    R4        1.79524   0.02058   0.00000   0.02390   0.02390   1.81914
    R5        1.79524   0.01530   0.00000   0.01777   0.01777   1.81301
    R6        1.79524   0.01406   0.00000   0.01633   0.01633   1.81157
    A1        2.53073   0.00094   0.00000   0.00000   0.00000   2.53073
    A2        1.91063   0.02048   0.00000   0.07430   0.07430   1.98494
    A3        1.91063   0.02048   0.00000   0.07430   0.07430   1.98494
    A4        2.46192  -0.04096   0.00000  -0.14861  -0.14861   2.31331
    A5        1.91063   0.02543   0.00000   0.09227   0.09227   2.00290
    A6        1.91063   0.02693   0.00000   0.09770   0.09770   2.00833
    A7        2.46192  -0.05236   0.00000  -0.18996  -0.18996   2.27196
    D1        1.57080   0.00007   0.00000   0.00118   0.00123   1.57203
    D2       -1.57080   0.00002   0.00000   0.00047   0.00042  -1.57038
    D3        3.14159   0.00001   0.00000   0.00013   0.00012  -3.14147
    D4        0.00000   0.00002   0.00000   0.00024   0.00025   0.00025
    D5        3.14159  -0.00007   0.00000  -0.00106  -0.00101   3.14058
    D6        3.14159   0.00001   0.00000   0.00016   0.00015  -3.14144
         Item               Value     Threshold  Converged?
 Maximum Force            0.052356     0.000450     NO 
 RMS     Force            0.021705     0.000300     NO 
 Maximum Displacement     0.189293     0.001800     NO 
 RMS     Displacement     0.076099     0.001200     NO 
 Predicted change in Energy=-1.828265D-02
 GradGradGradGradGradGradGradGradGradGradGradGradGradGradGradGradGradGrad

                          Input orientation:                          
 ---------------------------------------------------------------------
 Center     Atomic      Atomic             Coordinates (Angstroms)
 Number     Number       Type             X           Y           Z
 ---------------------------------------------------------------------
      1         29           0       -0.020549    0.000215    0.007711
      2          8           0       -0.010755    0.000019    3.892902
      3          8           0        1.066377   -0.000009   -1.552938
      4          1           0        0.581078    0.000275   -2.380548
      5          1           0        2.011068   -0.000499   -1.389985
      6          1           0       -0.010618    0.881269    4.280320
      7          1           0       -0.009657   -0.881271    4.280228
 ---------------------------------------------------------------------
                    Distance matrix (angstroms):
                    1          2          3          4          5
     1  Cu   0.000000
     2  O    3.885203   0.000000
     3  O    1.901850   5.551341   0.000000
     4  H    2.462872   6.301305   0.959403   0.000000
     5  H    2.465973   5.656559   0.958643   1.739566   0.000000
     6  H    4.362515   0.962649   5.996955   6.744881   6.084167
     7  H    4.362515   0.962649   5.996690   6.744778   6.083618
                    6          7
     6  H    0.000000
     7  H    1.762539   0.000000
 Stoichiometry    CuH4O2(2+,2)
 Framework group  C1[X(CuH4O2)]
 Deg. of freedom    15
 Full point group                 C1      NOp   1
 Omega: Change in point group or standard orientation.

 Old FWG=CS   [SG(Cu1H2O2),X(H2)]
 New FWG=C01  [X(Cu1H4O2)]
 Largest Abelian subgroup         C1      NOp   1
 Largest concise Abelian subgroup C1      NOp   1
                         Standard orientation:                         
 ---------------------------------------------------------------------
 Center     Atomic      Atomic             Coordinates (Angstroms)
 Number     Number       Type             X           Y           Z
 ---------------------------------------------------------------------
      1         29           0        0.440099    0.296468   -0.000069
      2          8           0       -3.406936   -0.246784    0.000056
      3          8           0        2.135228   -0.565836    0.000145
      4          1           0        2.888352    0.028521    0.000108
      5          1           0        2.103554   -1.523955    0.000160
      6          1           0       -3.790657   -0.299660    0.881338
      7          1           0       -3.790450   -0.301528   -0.881201
 ---------------------------------------------------------------------
 Rotational constants (GHZ):     32.4325261      1.6097865      1.5483746
 Standard basis: 6-311G(d) (5D, 7F)
 There are   102 symmetry adapted cartesian basis functions of A   symmetry.
 There are    94 symmetry adapted basis functions of A   symmetry.
    94 basis functions,   165 primitive gaussians,   102 cartesian basis functions
    24 alpha electrons       23 beta electrons
       nuclear repulsion energy       143.1333698820 Hartrees.
 NAtoms=    7 NActive=    7 NUniq=    7 SFac= 1.00D+00 NAtFMM=   60 NAOKFM=F Big=F
 Integral buffers will be    131072 words long.
 Raffenetti 2 integral format.
 Two-electron integral symmetry is turned on.
 One-electron integrals computed using PRISM.
 NBasis=    94 RedAO= T EigKep=  9.37D-03  NBF=    94
 NBsUse=    94 1.00D-06 EigRej= -1.00D+00 NBFU=    94
 Initial guess from the checkpoint file:  "pescuh2o2.chk"
 B after Tr=     0.000000    0.000000    0.000000
         Rot=    0.880523    0.000151    0.000082    0.474004 Ang=  56.59 deg.
 Initial guess <Sx>= 0.0000 <Sy>= 0.0000 <Sz>= 0.5000 <S**2>= 0.7524 S= 0.5012
 ExpMin= 4.08D-02 ExpMax= 3.37D+05 ExpMxC= 1.14D+04 IAcc=2 IRadAn=         4 AccDes= 0.00D+00
 Harris functional with IExCor=  402 and IRadAn=       4 diagonalized for initial guess.
 HarFok:  IExCor=  402 AccDes= 0.00D+00 IRadAn=         4 IDoV= 1 UseB2=F ITyADJ=14
 ICtDFT=  3500011 ScaDFX=  1.000000  1.000000  1.000000  1.000000
 FoFCou: FMM=F IPFlag=           0 FMFlag=      100000 FMFlg1=           0
         NFxFlg=           0 DoJE=T BraDBF=F KetDBF=T FulRan=T
         wScrn=  0.000000 ICntrl=     500 IOpCl=  0 I1Cent=   200000004 NGrid=           0
         NMat0=    1 NMatS0=      1 NMatT0=    0 NMatD0=    1 NMtDS0=    0 NMtDT0=    0
 Petite list used in FoFCou.
 Keep R1 and R2 ints in memory in canonical form, NReq=21960888.
 Requested convergence on RMS density matrix=1.00D-08 within  64 cycles.
 Requested convergence on MAX density matrix=1.00D-06.
 Requested convergence on             energy=1.00D-06.
 No special actions if energy rises.
 EnCoef did     6 forward-backward iterations
 EnCoef did     8 forward-backward iterations
 EnCoef did     8 forward-backward iterations
 SCF Done:  E(UB3LYP) =  -1792.51796140     A.U. after   20 cycles
            NFock= 20  Conv=0.82D-08     -V/T= 2.0006
 <Sx>= 0.0000 <Sy>= 0.0000 <Sz>= 0.5000 <S**2>= 0.7523 S= 0.5012
 <L.S>= 0.000000000000E+00
 Annihilation of the first spin contaminant:
 S**2 before annihilation     0.7523,   after     0.7500
 QCSCF skips out because SCF is already converged.
 Calling FoFJK, ICntrl=      2127 FMM=F ISym2X=0 I1Cent= 0 IOpClX= 1 NMat=1 NMatS=1 NMatT=0.
 ***** Axes restored to original set *****
 -------------------------------------------------------------------
 Center     Atomic                   Forces (Hartrees/Bohr)
 Number     Number              X              Y              Z
 -------------------------------------------------------------------
      1       29          -0.001196780    0.000030062   -0.002689199
      2        8          -0.000088282   -0.000005089   -0.057866027
      3        8          -0.034709611    0.000025873    0.050742185
      4        1           0.024137948   -0.000015689   -0.021868915
      5        1           0.011922860   -0.000031808   -0.030882612
      6        1          -0.000057881   -0.003552877    0.031282214
      7        1          -0.000008253    0.003549527    0.031282354
 -------------------------------------------------------------------
 Cartesian Forces:  Max     0.057866027 RMS     0.023172075

 GradGradGradGradGradGradGradGradGradGradGradGradGradGradGradGradGradGrad
 Berny optimization.
 Using GEDIIS/GDIIS optimizer.
 FormGI is forming the generalized inverse of G from B-inverse, IUseBI=4.
 Internal  Forces:  Max     0.038867848 RMS     0.015477310
 Search for a local minimum.
 Step number   2 out of a maximum of  100 on scan point     1 out of    26
 All quantities printed in internal units (Hartrees-Bohrs-Radians)
 Mixed Optimization -- RFO/linear search
 Update second derivatives using D2CorX and points    1    2
 DE= -2.31D-02 DEPred=-1.83D-02 R= 1.26D+00
 TightC=F SS=  1.41D+00  RLast= 3.00D-01 DXNew= 5.0454D-01 9.0001D-01
 Trust test= 1.26D+00 RLast= 3.00D-01 DXMaxT set to 5.05D-01
 The second derivative matrix:
                          R1        R2        R3        R4        R5
           R1           0.00861
           R2           0.00057   0.19756
           R3           0.00083   0.00911   0.58566
           R4           0.00083   0.00911   0.00885   0.58566
           R5           0.00064   0.00714   0.00712   0.00712   0.58251
           R6           0.00056   0.00607   0.00583   0.00583   0.00469
           A1          -0.00002  -0.00035  -0.00051  -0.00051  -0.00039
           A2           0.00017  -0.00181  -0.00654  -0.00654  -0.00476
           A3           0.00017  -0.00181  -0.00654  -0.00654  -0.00476
           A4          -0.00033   0.00363   0.01309   0.01309   0.00951
           A5           0.00048   0.00257  -0.00106  -0.00106  -0.00048
           A6           0.00052   0.00285  -0.00092  -0.00092  -0.00035
           A7          -0.00100  -0.00542   0.00198   0.00198   0.00083
           D1           0.00000  -0.00003  -0.00005  -0.00005  -0.00004
           D2           0.00000   0.00003   0.00004   0.00004   0.00003
           D3           0.00000   0.00001   0.00001   0.00001   0.00000
           D4           0.00000  -0.00001  -0.00002  -0.00002  -0.00001
           D5           0.00000   0.00001   0.00002   0.00002   0.00002
           D6           0.00000   0.00000  -0.00001  -0.00001  -0.00001
                          R6        A1        A2        A3        A4
           R6           0.58064
           A1          -0.00034   0.25001
           A2          -0.00451  -0.00010   0.15153
           A3          -0.00451  -0.00010  -0.00847   0.15153
           A4           0.00903   0.00020   0.01695   0.01695   0.12610
           A5          -0.00085  -0.00029  -0.00911  -0.00911   0.01822
           A6          -0.00077  -0.00032  -0.00961  -0.00961   0.01922
           A7           0.00162   0.00061   0.01872   0.01872  -0.03744
           D1          -0.00003   0.00000  -0.00001  -0.00001   0.00002
           D2           0.00003   0.00000   0.00001   0.00001  -0.00002
           D3           0.00000   0.00000   0.00000   0.00000   0.00000
           D4          -0.00001   0.00000  -0.00001  -0.00001   0.00002
           D5           0.00001   0.00000   0.00001   0.00001  -0.00003
           D6          -0.00001   0.00000   0.00000   0.00000   0.00001
                          A5        A6        A7        D1        D2
           A5           0.15277
           A6          -0.00754   0.15214
           A7           0.01477   0.01540   0.12984
           D1          -0.00003  -0.00003   0.00006   0.00230
           D2           0.00002   0.00003  -0.00005   0.00000   0.00230
           D3           0.00000   0.00000   0.00000   0.00000   0.00000
           D4          -0.00001  -0.00002   0.00003   0.00000   0.00000
           D5           0.00002   0.00002  -0.00004   0.00000   0.00000
           D6          -0.00001  -0.00001   0.00001   0.00000   0.00000
                          D3        D4        D5        D6
           D3           0.03612
           D4           0.00000   0.03612
           D5           0.00000   0.00000   0.01690
           D6           0.00000   0.00000   0.00000   0.01690
 ITU=  1  0
 Use linear search instead of GDIIS.
 Linear search step of   0.600 exceeds DXMaxT=   0.505 but not scaled.
 Quartic linear search produced a step of  2.00000.
 Iteration  1 RMS(Cart)=  0.11578090 RMS(Int)=  0.04124668
 Iteration  2 RMS(Cart)=  0.04301982 RMS(Int)=  0.00129638
 Iteration  3 RMS(Cart)=  0.00124539 RMS(Int)=  0.00010489
 Iteration  4 RMS(Cart)=  0.00000031 RMS(Int)=  0.00010489
 Iteration  1 RMS(Cart)=  0.00000000 RMS(Int)=  0.00000000
 Variable       Old X    -DE/DX   Delta X   Delta X   Delta X     New X
                                 (Linear)    (Quad)   (Total)
    R1        7.34197   0.00470   0.00000   0.00000   0.00000   7.34197
    R2        3.59398   0.00242   0.06345   0.00000   0.06345   3.65743
    R3        1.81914   0.00934   0.04781   0.00000   0.04781   1.86695
    R4        1.81914   0.00934   0.04781   0.00000   0.04781   1.86695
    R5        1.81301   0.00666   0.03554   0.00000   0.03554   1.84855
    R6        1.81157   0.00649   0.03266   0.00000   0.03266   1.84424
    A1        2.53073   0.00121   0.00000   0.00000   0.00000   2.53073
    A2        1.98494   0.01823   0.14861   0.00000   0.14861   2.13354
    A3        1.98494   0.01823   0.14860   0.00000   0.14860   2.13354
    A4        2.31331  -0.03646  -0.29721   0.00000  -0.29721   2.01610
    A5        2.00290   0.01893   0.18453   0.00000   0.18453   2.18743
    A6        2.00833   0.01994   0.19539   0.00000   0.19539   2.20372
    A7        2.27196  -0.03887  -0.37992   0.00000  -0.37992   1.89203
    D1        1.57203   0.00009   0.00246   0.00000   0.00271   1.57474
    D2       -1.57038   0.00000   0.00083   0.00000   0.00058  -1.56980
    D3       -3.14147   0.00001   0.00025   0.00000   0.00020  -3.14127
    D4        0.00025   0.00003   0.00051   0.00000   0.00055   0.00080
    D5        3.14058  -0.00008  -0.00202   0.00000  -0.00175   3.13883
    D6       -3.14144   0.00002   0.00031   0.00000   0.00025  -3.14118
         Item               Value     Threshold  Converged?
 Maximum Force            0.038868     0.000450     NO 
 RMS     Force            0.016320     0.000300     NO 
 Maximum Displacement     0.395718     0.001800     NO 
 RMS     Displacement     0.154319     0.001200     NO 
 Predicted change in Energy=-2.810041D-02
 GradGradGradGradGradGradGradGradGradGradGradGradGradGradGradGradGradGrad

                          Input orientation:                          
 ---------------------------------------------------------------------
 Center     Atomic      Atomic             Coordinates (Angstroms)
 Number     Number       Type             X           Y           Z
 ---------------------------------------------------------------------
      1         29           0       -0.059484    0.000680    0.022118
      2          8           0       -0.032266    0.000068    3.907225
      3          8           0        1.039498    0.000015   -1.571030
      4          1           0        0.703796    0.000690   -2.489832
      5          1           0        2.015013   -0.001419   -1.599390
      6          1           0       -0.031180    0.835582    4.434442
      7          1           0       -0.028433   -0.835616    4.434158
 ---------------------------------------------------------------------
                    Distance matrix (angstroms):
                    1          2          3          4          5
     1  Cu   0.000000
     2  O    3.885203   0.000000
     3  O    1.935428   5.582111   0.000000
     4  H    2.625354   6.439264   0.978209   0.000000
     5  H    2.633026   5.874875   0.975928   1.584986   0.000000
     6  H    4.490709   0.987948   6.157128   7.013045   6.426087
     7  H    4.490708   0.987948   6.156382   7.012646   6.424582
                    6          7
     6  H    0.000000
     7  H    1.671200   0.000000
 Stoichiometry    CuH4O2(2+,2)
 Framework group  C1[X(CuH4O2)]
 Deg. of freedom    15
 Full point group                 C1      NOp   1
 Largest Abelian subgroup         C1      NOp   1
 Largest concise Abelian subgroup C1      NOp   1
                         Standard orientation:                         
 ---------------------------------------------------------------------
 Center     Atomic      Atomic             Coordinates (Angstroms)
 Number     Number       Type             X           Y           Z
 ---------------------------------------------------------------------
      1         29           0        0.431689    0.305819   -0.000181
      2          8           0       -3.412100   -0.259943    0.000149
      3          8           0        2.161854   -0.561597    0.000374
      4          1           0        3.025220   -0.101715    0.000350
      5          1           0        2.325229   -1.523753    0.000345
      6          1           0       -3.934047   -0.332912    0.835785
      7          1           0       -3.933434   -0.338041   -0.835407
 ---------------------------------------------------------------------
 Rotational constants (GHZ):     31.9029109      1.5804743      1.5186099
 Standard basis: 6-311G(d) (5D, 7F)
 There are   102 symmetry adapted cartesian basis functions of A   symmetry.
 There are    94 symmetry adapted basis functions of A   symmetry.
    94 basis functions,   165 primitive gaussians,   102 cartesian basis functions
    24 alpha electrons       23 beta electrons
       nuclear repulsion energy       140.5621992689 Hartrees.
 NAtoms=    7 NActive=    7 NUniq=    7 SFac= 1.00D+00 NAtFMM=   60 NAOKFM=F Big=F
 Integral buffers will be    131072 words long.
 Raffenetti 2 integral format.
 Two-electron integral symmetry is turned on.
 One-electron integrals computed using PRISM.
 NBasis=    94 RedAO= T EigKep=  9.37D-03  NBF=    94
 NBsUse=    94 1.00D-06 EigRej= -1.00D+00 NBFU=    94
 Initial guess from the checkpoint file:  "pescuh2o2.chk"
 B after Tr=     0.000000    0.000000    0.000000
         Rot=    0.999997    0.000282    0.000001   -0.002324 Ang=   0.27 deg.
 Initial guess <Sx>= 0.0000 <Sy>= 0.0000 <Sz>= 0.5000 <S**2>= 0.7524 S= 0.5012
 ExpMin= 4.08D-02 ExpMax= 3.37D+05 ExpMxC= 1.14D+04 IAcc=2 IRadAn=         4 AccDes= 0.00D+00
 Harris functional with IExCor=  402 and IRadAn=       4 diagonalized for initial guess.
 HarFok:  IExCor=  402 AccDes= 0.00D+00 IRadAn=         4 IDoV= 1 UseB2=F ITyADJ=14
 ICtDFT=  3500011 ScaDFX=  1.000000  1.000000  1.000000  1.000000
 FoFCou: FMM=F IPFlag=           0 FMFlag=      100000 FMFlg1=           0
         NFxFlg=           0 DoJE=T BraDBF=F KetDBF=T FulRan=T
         wScrn=  0.000000 ICntrl=     500 IOpCl=  0 I1Cent=   200000004 NGrid=           0
         NMat0=    1 NMatS0=      1 NMatT0=    0 NMatD0=    1 NMtDS0=    0 NMtDT0=    0
 Petite list used in FoFCou.
 Keep R1 and R2 ints in memory in canonical form, NReq=21960646.
 Requested convergence on RMS density matrix=1.00D-08 within  64 cycles.
 Requested convergence on MAX density matrix=1.00D-06.
 Requested convergence on             energy=1.00D-06.
 No special actions if energy rises.
 SCF Done:  E(UB3LYP) =  -1792.54181740     A.U. after   20 cycles
            NFock= 20  Conv=0.51D-08     -V/T= 2.0007
 <Sx>= 0.0000 <Sy>= 0.0000 <Sz>= 0.5000 <S**2>= 0.7523 S= 0.5012
 <L.S>= 0.000000000000E+00
 Annihilation of the first spin contaminant:
 S**2 before annihilation     0.7523,   after     0.7500
 QCSCF skips out because SCF is already converged.
 Calling FoFJK, ICntrl=      2127 FMM=F ISym2X=0 I1Cent= 0 IOpClX= 1 NMat=1 NMatS=1 NMatT=0.
 ***** Axes restored to original set *****
 -------------------------------------------------------------------
 Center     Atomic                   Forces (Hartrees/Bohr)
 Number     Number              X              Y              Z
 -------------------------------------------------------------------
      1       29           0.005172851    0.000016898   -0.011336176
      2        8          -0.000085050   -0.000007690   -0.008069588
      3        8          -0.002629521    0.000042313    0.001602625
      4        1           0.002327671   -0.000018794    0.005807454
      5        1          -0.004757793   -0.000031598   -0.000246450
      6        1          -0.000018259   -0.014519625    0.006119106
      7        1          -0.000009898    0.014518496    0.006123029
 -------------------------------------------------------------------
 Cartesian Forces:  Max     0.014519625 RMS     0.006126688

 GradGradGradGradGradGradGradGradGradGradGradGradGradGradGradGradGradGrad
 Berny optimization.
 Using GEDIIS/GDIIS optimizer.
 FormGI is forming the generalized inverse of G from B-inverse, IUseBI=4.
 Internal  Forces:  Max     0.016086618 RMS     0.006103858
 Search for a local minimum.
 Step number   3 out of a maximum of  100 on scan point     1 out of    26
 All quantities printed in internal units (Hartrees-Bohrs-Radians)
 Mixed Optimization -- RFO/linear search
 Update second derivatives using D2CorX and points    2    3
 The second derivative matrix:
                          R1        R2        R3        R4        R5
           R1           0.00858
           R2           0.00017   0.19126
           R3           0.00028   0.00050   0.57407
           R4           0.00028   0.00050  -0.00274   0.57407
           R5           0.00020   0.00013  -0.00243  -0.00243   0.57473
           R6           0.00017  -0.00008  -0.00256  -0.00256  -0.00214
           A1           0.00001   0.00012   0.00019   0.00019   0.00013
           A2           0.00016  -0.00141  -0.00537  -0.00537  -0.00421
           A3           0.00016  -0.00141  -0.00537  -0.00537  -0.00421
           A4          -0.00031   0.00282   0.01075   0.01075   0.00842
           A5           0.00029   0.00030  -0.00331  -0.00331  -0.00286
           A6           0.00030   0.00016  -0.00377  -0.00376  -0.00322
           A7          -0.00059  -0.00047   0.00707   0.00707   0.00608
           D1           0.00000   0.00000   0.00000   0.00000   0.00000
           D2           0.00000   0.00000  -0.00001  -0.00001   0.00000
           D3           0.00000   0.00000   0.00000   0.00000   0.00000
           D4           0.00000  -0.00001  -0.00001  -0.00001  -0.00001
           D5           0.00000  -0.00001  -0.00001  -0.00001  -0.00001
           D6           0.00000   0.00000  -0.00001  -0.00001  -0.00001
                          R6        A1        A2        A3        A4
           R6           0.57464
           A1           0.00012   0.25000
           A2          -0.00405   0.00011   0.15369
           A3          -0.00405   0.00011  -0.00631   0.15369
           A4           0.00811  -0.00021   0.01261   0.01261   0.13478
           A5          -0.00297   0.00020  -0.00596  -0.00596   0.01192
           A6          -0.00331   0.00020  -0.00646  -0.00646   0.01292
           A7           0.00628  -0.00040   0.01242   0.01242  -0.02484
           D1           0.00000   0.00000   0.00000   0.00000   0.00000
           D2           0.00000   0.00000   0.00000   0.00000   0.00001
           D3           0.00000   0.00000   0.00000   0.00000   0.00000
           D4          -0.00001   0.00000  -0.00001  -0.00001   0.00002
           D5          -0.00001   0.00000   0.00000   0.00000   0.00000
           D6           0.00000   0.00000  -0.00001  -0.00001   0.00001
                          A5        A6        A7        D1        D2
           A5           0.15607
           A6          -0.00443   0.15503
           A7           0.00836   0.00940   0.14223
           D1           0.00000   0.00000  -0.00001   0.00230
           D2          -0.00001  -0.00001   0.00001   0.00000   0.00230
           D3           0.00000   0.00000   0.00000   0.00000   0.00000
           D4          -0.00001  -0.00001   0.00003   0.00000   0.00000
           D5          -0.00001  -0.00001   0.00002   0.00000   0.00000
           D6          -0.00001  -0.00001   0.00002   0.00000   0.00000
                          D3        D4        D5        D6
           D3           0.03612
           D4           0.00000   0.03612
           D5           0.00000   0.00000   0.01690
           D6           0.00000   0.00000   0.00000   0.01690
 ITU=  0  1  0
 Use linear search instead of GDIIS.
     Eigenvalues ---    0.00230   0.01160   0.02476   0.03612   0.08833
     Eigenvalues ---    0.16000   0.16000   0.16514   0.19158   0.56862
     Eigenvalues ---    0.57681   0.57681   0.576991000.000001000.00000
     Eigenvalues --- 1000.000001000.000001000.000001000.00000
 RFO step:  Lambda=-2.96620909D-03 EMin= 2.29999893D-03
 Quartic linear search produced a step of  0.13217.
 Iteration  1 RMS(Cart)=  0.03366171 RMS(Int)=  0.00125369
 Iteration  2 RMS(Cart)=  0.00118703 RMS(Int)=  0.00004210
 Iteration  3 RMS(Cart)=  0.00000022 RMS(Int)=  0.00004210
 Iteration  1 RMS(Cart)=  0.00000000 RMS(Int)=  0.00000000
 Variable       Old X    -DE/DX   Delta X   Delta X   Delta X     New X
                                 (Linear)    (Quad)   (Total)
    R1        7.34197   0.00418   0.00000   0.00000   0.00000   7.34197
    R2        3.65743  -0.00878   0.00839  -0.05168  -0.04330   3.61413
    R3        1.86695  -0.00901   0.00632  -0.01813  -0.01181   1.85514
    R4        1.86695  -0.00901   0.00632  -0.01814  -0.01182   1.85513
    R5        1.84855  -0.00625   0.00470  -0.01254  -0.00784   1.84071
    R6        1.84424  -0.00476   0.00432  -0.00969  -0.00537   1.83887
    A1        2.53073   0.00085   0.00000   0.00000   0.00000   2.53073
    A2        2.13354   0.00804   0.01964   0.04401   0.06366   2.19720
    A3        2.13354   0.00804   0.01964   0.04402   0.06366   2.19719
    A4        2.01610  -0.01609  -0.03928  -0.08804  -0.12732   1.88878
    A5        2.18743  -0.00002   0.02439  -0.01176   0.01263   2.20006
    A6        2.20372   0.00037   0.02583  -0.00970   0.01613   2.21984
    A7        1.89203  -0.00035  -0.05022   0.02146  -0.02876   1.86328
    D1        1.57474   0.00008   0.00036   0.00884   0.00930   1.58404
    D2       -1.56980   0.00001   0.00008   0.00600   0.00598  -1.56383
    D3       -3.14127   0.00000   0.00003  -0.00015  -0.00013  -3.14140
    D4        0.00080   0.00003   0.00007   0.00106   0.00115   0.00195
    D5        3.13883  -0.00003  -0.00023  -0.00247  -0.00258   3.13625
    D6       -3.14118   0.00003   0.00003   0.00103   0.00105  -3.14013
         Item               Value     Threshold  Converged?
 Maximum Force            0.016087     0.000450     NO 
 RMS     Force            0.006370     0.000300     NO 
 Maximum Displacement     0.076565     0.001800     NO 
 RMS     Displacement     0.033920     0.001200     NO 
 Predicted change in Energy=-2.005812D-03
 GradGradGradGradGradGradGradGradGradGradGradGradGradGradGradGradGradGrad

                          Input orientation:                          
 ---------------------------------------------------------------------
 Center     Atomic      Atomic             Coordinates (Angstroms)
 Number     Number       Type             X           Y           Z
 ---------------------------------------------------------------------
      1         29           0       -0.053299    0.003049    0.001507
      2          8           0       -0.032612    0.000208    3.886654
      3          8           0        1.035311    0.000102   -1.570956
      4          1           0        0.714162    0.002107   -2.490549
      5          1           0        2.007464   -0.005010   -1.613282
      6          1           0       -0.037107    0.795065    4.462769
      7          1           0       -0.026974   -0.795522    4.461550
 ---------------------------------------------------------------------
                    Distance matrix (angstroms):
                    1          2          3          4          5
     1  Cu   0.000000
     2  O    3.885203   0.000000
     3  O    1.912516   5.561111   0.000000
     4  H    2.607555   6.420778   0.974060   0.000000
     5  H    2.618081   5.866109   0.973087   1.562778   0.000000
     6  H    4.531050   0.981696   6.179634   7.038596   6.460557
     7  H    4.531048   0.981695   6.176778   7.036844   6.455031
                    6          7
     6  H    0.000000
     7  H    1.590621   0.000000
 Stoichiometry    CuH4O2(2+,2)
 Framework group  C1[X(CuH4O2)]
 Deg. of freedom    15
 Full point group                 C1      NOp   1
 Largest Abelian subgroup         C1      NOp   1
 Largest concise Abelian subgroup C1      NOp   1
                         Standard orientation:                         
 ---------------------------------------------------------------------
 Center     Atomic      Atomic             Coordinates (Angstroms)
 Number     Number       Type             X           Y           Z
 ---------------------------------------------------------------------
      1         29           0        0.438162    0.303132   -0.000613
      2          8           0       -3.406879   -0.254056    0.000487
      3          8           0        2.145929   -0.557823    0.001286
      4          1           0        3.012343   -0.112718    0.000502
      5          1           0        2.322143   -1.514823    0.001840
      6          1           0       -3.977963   -0.324458    0.795870
      7          1           0       -3.975614   -0.343789   -0.794631
 ---------------------------------------------------------------------
 Rotational constants (GHZ):     32.6805289      1.5847570      1.5230763
 Standard basis: 6-311G(d) (5D, 7F)
 There are   102 symmetry adapted cartesian basis functions of A   symmetry.
 There are    94 symmetry adapted basis functions of A   symmetry.
    94 basis functions,   165 primitive gaussians,   102 cartesian basis functions
    24 alpha electrons       23 beta electrons
       nuclear repulsion energy       141.4606565221 Hartrees.
 NAtoms=    7 NActive=    7 NUniq=    7 SFac= 1.00D+00 NAtFMM=   60 NAOKFM=F Big=F
 Integral buffers will be    131072 words long.
 Raffenetti 2 integral format.
 Two-electron integral symmetry is turned on.
 One-electron integrals computed using PRISM.
 GSVD:  received Info=                   1 from GESDD.
 NBasis=    94 RedAO= T EigKep=  9.37D-03  NBF=    94
 NBsUse=    94 1.00D-06 EigRej= -1.00D+00 NBFU=    94
 Initial guess from the checkpoint file:  "pescuh2o2.chk"
 B after Tr=     0.000000    0.000000    0.000000
         Rot=    0.999999    0.001215    0.000009    0.000805 Ang=   0.17 deg.
 Initial guess <Sx>= 0.0000 <Sy>= 0.0000 <Sz>= 0.5000 <S**2>= 0.7523 S= 0.5012
 ExpMin= 4.08D-02 ExpMax= 3.37D+05 ExpMxC= 1.14D+04 IAcc=2 IRadAn=         4 AccDes= 0.00D+00
 Harris functional with IExCor=  402 and IRadAn=       4 diagonalized for initial guess.
 HarFok:  IExCor=  402 AccDes= 0.00D+00 IRadAn=         4 IDoV= 1 UseB2=F ITyADJ=14
 ICtDFT=  3500011 ScaDFX=  1.000000  1.000000  1.000000  1.000000
 FoFCou: FMM=F IPFlag=           0 FMFlag=      100000 FMFlg1=           0
         NFxFlg=           0 DoJE=T BraDBF=F KetDBF=T FulRan=T
         wScrn=  0.000000 ICntrl=     500 IOpCl=  0 I1Cent=   200000004 NGrid=           0
         NMat0=    1 NMatS0=      1 NMatT0=    0 NMatD0=    1 NMtDS0=    0 NMtDT0=    0
 Petite list used in FoFCou.
 Keep R1 and R2 ints in memory in canonical form, NReq=21960702.
 Requested convergence on RMS density matrix=1.00D-08 within  64 cycles.
 Requested convergence on MAX density matrix=1.00D-06.
 Requested convergence on             energy=1.00D-06.
 No special actions if energy rises.
 SCF Done:  E(UB3LYP) =  -1792.54402210     A.U. after   22 cycles
            NFock= 22  Conv=0.65D-08     -V/T= 2.0007
 <Sx>= 0.0000 <Sy>= 0.0000 <Sz>= 0.5000 <S**2>= 0.7523 S= 0.5011
 <L.S>= 0.000000000000E+00
 Annihilation of the first spin contaminant:
 S**2 before annihilation     0.7523,   after     0.7500
 QCSCF skips out because SCF is already converged.
 Calling FoFJK, ICntrl=      2127 FMM=F ISym2X=0 I1Cent= 0 IOpClX= 1 NMat=1 NMatS=1 NMatT=0.
 ***** Axes restored to original set *****
 -------------------------------------------------------------------
 Center     Atomic                   Forces (Hartrees/Bohr)
 Number     Number              X              Y              Z
 -------------------------------------------------------------------
      1       29           0.002696393    0.000019559   -0.007395875
      2        8          -0.000068347   -0.000012142    0.002014517
      3        8           0.000466643    0.000007990   -0.001543635
      4        1          -0.002042057    0.000006464    0.002276040
      5        1          -0.000998491   -0.000023289    0.002667482
      6        1          -0.000042827   -0.002076500    0.000989924
      7        1          -0.000011314    0.002077918    0.000991547
 -------------------------------------------------------------------
 Cartesian Forces:  Max     0.007395875 RMS     0.002145778

 GradGradGradGradGradGradGradGradGradGradGradGradGradGradGradGradGradGrad
 Berny optimization.
 Using GEDIIS/GDIIS optimizer.
 FormGI is forming the generalized inverse of G from B-inverse, IUseBI=4.
 Internal  Forces:  Max     0.004269828 RMS     0.001865511
 Search for a local minimum.
 Step number   4 out of a maximum of  100 on scan point     1 out of    26
 All quantities printed in internal units (Hartrees-Bohrs-Radians)
 Mixed Optimization -- RFO/linear search
 Update second derivatives using D2CorX and points    3    4
 DE= -2.20D-03 DEPred=-2.01D-03 R= 1.10D+00
 TightC=F SS=  1.41D+00  RLast= 1.67D-01 DXNew= 8.4853D-01 5.0143D-01
 Trust test= 1.10D+00 RLast= 1.67D-01 DXMaxT set to 5.05D-01
 The second derivative matrix:
                          R1        R2        R3        R4        R5
           R1           0.00859
           R2           0.00009   0.17547
           R3           0.00002  -0.01120   0.57007
           R4           0.00002  -0.01121  -0.00675   0.57005
           R5           0.00005  -0.00900  -0.00698  -0.00699   0.57050
           R6           0.00006  -0.00707  -0.00607  -0.00607  -0.00539
           A1           0.00000   0.00028   0.00039   0.00039   0.00026
           A2           0.00039   0.00781  -0.00279  -0.00278  -0.00089
           A3           0.00039   0.00782  -0.00278  -0.00278  -0.00089
           A4          -0.00077  -0.01563   0.00557   0.00555   0.00178
           A5           0.00039  -0.00336  -0.00881  -0.00881  -0.00631
           A6           0.00041  -0.00298  -0.00898  -0.00898  -0.00641
           A7          -0.00080   0.00635   0.01779   0.01779   0.01271
           D1           0.00000   0.00003   0.00001   0.00001   0.00001
           D2           0.00000   0.00005   0.00007   0.00007   0.00005
           D3           0.00000   0.00000   0.00001   0.00001   0.00000
           D4           0.00000   0.00008   0.00006   0.00006   0.00004
           D5           0.00000  -0.00010  -0.00009  -0.00009  -0.00007
           D6           0.00000   0.00002   0.00000   0.00000   0.00001
                          R6        A1        A2        A3        A4
           R6           0.57214
           A1           0.00022   0.25000
           A2          -0.00149  -0.00006   0.15218
           A3          -0.00149  -0.00006  -0.00783   0.15217
           A4           0.00298   0.00012   0.01566   0.01566   0.12867
           A5          -0.00559   0.00019  -0.00129  -0.00129   0.00258
           A6          -0.00573   0.00019  -0.00200  -0.00200   0.00399
           A7           0.01133  -0.00037   0.00328   0.00328  -0.00657
           D1           0.00001   0.00000   0.00000   0.00000   0.00000
           D2           0.00003   0.00000  -0.00007  -0.00007   0.00014
           D3           0.00000   0.00000  -0.00001  -0.00001   0.00002
           D4           0.00003   0.00000  -0.00007  -0.00007   0.00014
           D5          -0.00005   0.00000   0.00006   0.00006  -0.00013
           D6           0.00000   0.00000  -0.00001  -0.00001   0.00003
                          A5        A6        A7        D1        D2
           A5           0.15688
           A6          -0.00344   0.15618
           A7           0.00657   0.00726   0.14618
           D1           0.00002   0.00002  -0.00004   0.00230
           D2          -0.00002  -0.00002   0.00003   0.00000   0.00230
           D3           0.00000   0.00000   0.00001   0.00000   0.00000
           D4           0.00000  -0.00001   0.00001   0.00000   0.00000
           D5          -0.00002  -0.00002   0.00005   0.00000   0.00000
           D6           0.00000   0.00000   0.00000   0.00000   0.00000
                          D3        D4        D5        D6
           D3           0.03612
           D4           0.00000   0.03612
           D5           0.00000   0.00000   0.01690
           D6           0.00000   0.00000   0.00000   0.01690
 ITU=  1  0  1  0
 Use linear search instead of GDIIS.
     Eigenvalues ---    0.00230   0.01095   0.02496   0.03612   0.10542
     Eigenvalues ---    0.13493   0.16000   0.16001   0.18286   0.55582
     Eigenvalues ---    0.57678   0.57681   0.577851000.000001000.00000
     Eigenvalues --- 1000.000001000.000001000.000001000.00000
 RFO step:  Lambda=-2.51366611D-04 EMin= 2.29964764D-03
 Quartic linear search produced a step of  0.16210.
 Iteration  1 RMS(Cart)=  0.01373354 RMS(Int)=  0.00008581
 Iteration  2 RMS(Cart)=  0.00008416 RMS(Int)=  0.00000955
 Iteration  3 RMS(Cart)=  0.00000000 RMS(Int)=  0.00000955
 Iteration  1 RMS(Cart)=  0.00000000 RMS(Int)=  0.00000000
 Variable       Old X    -DE/DX   Delta X   Delta X   Delta X     New X
                                 (Linear)    (Quad)   (Total)
    R1        7.34197   0.00400   0.00000   0.00000   0.00000   7.34197
    R2        3.61413  -0.00427  -0.00702  -0.02184  -0.02886   3.58528
    R3        1.85514  -0.00110  -0.00192  -0.00152  -0.00343   1.85170
    R4        1.85513  -0.00110  -0.00192  -0.00152  -0.00344   1.85170
    R5        1.84071  -0.00147  -0.00127  -0.00258  -0.00386   1.83685
    R6        1.83887  -0.00112  -0.00087  -0.00211  -0.00298   1.83589
    A1        2.53073   0.00088   0.00000   0.00000   0.00000   2.53073
    A2        2.19720   0.00125   0.01032   0.00042   0.01073   2.20793
    A3        2.19719   0.00125   0.01032   0.00043   0.01075   2.20794
[...]
           A7         108.64966 108.58484 108.51611 108.43211 108.32497
           D1         -83.27098 -83.92356 -84.56280 -84.96865 -84.83422
           D2          83.34884  83.97028  84.52097  84.82573  84.83991
           D3         -83.00199 -82.57563 -82.55761 -82.64922 -83.23295
           D4          82.88014  82.74337  82.61723  82.82965  83.22408
           D5         168.51553 169.59071 170.60619 171.22296 171.13522
           D6         167.83422 167.35491 167.24033 167.51784 168.38189
                          21        22        23        24        25
     Eigenvalues --  **************************************************
           R1           1.88520   1.78520   1.68520   1.58520   1.48520
           R2           1.85213   1.85282   1.85244   1.85113   1.85008
           R3           0.97738   0.97907   0.98148   0.98491   0.98957
           R4           0.97738   0.97908   0.98147   0.98492   0.98955
           R5           0.97784   0.97780   0.97757   0.97727   0.97693
           R6           0.97784   0.97780   0.97757   0.97729   0.97694
           A1         145.00000 145.00000 145.00000 145.00000 145.00000
           A2         125.51076 125.67657 126.07381 126.49528 127.24563
           A3         125.47396 125.70203 126.04404 126.64889 127.26735
           A4         108.27402 107.85574 107.16937 106.17101 104.77309
           A5         125.47428 125.64355 125.71465 125.71859 125.70905
           A6         125.47259 125.64594 125.71732 125.73188 125.71451
           A7         108.21165 108.11946 108.10422 108.13545 108.17118
           D1         -84.49941 -84.41261 -84.51298 -84.63345 -84.39861
           D2          84.46499  84.32997  84.55348  84.55000  84.41849
           D3         -84.10884 -85.00048 -85.57765 -85.89838 -85.90559
           D4          84.13296  85.12290  85.66572  85.82770  85.91137
           D5         170.55117 170.41263 170.76327 170.98066 170.81522
           D6         169.93822 171.56649 172.52804 172.93917 173.01361
                          26
     Eigenvalues --  **********
           R1           1.38520
           R2           1.85002
           R3           0.99674
           R4           0.99673
           R5           0.97663
           R6           0.97663
           A1         145.00000
           A2         128.12702
           A3         128.12733
           A4         102.98180
           A5         125.68793
           A6         125.69437
           A7         108.23649
           D1         -84.11720
           D2          84.13106
           D3         -86.03544
           D4          86.03169
           D5         170.53654
           D6         173.22254
                          Input orientation:                          
 ---------------------------------------------------------------------
 Center     Atomic      Atomic             Coordinates (Angstroms)
 Number     Number       Type             X           Y           Z
 ---------------------------------------------------------------------
      1         29           0        0.616938   -0.535349    1.229548
      2          8           0        0.275268   -0.112072    2.503474
      3          8           0        0.804058   -0.023138   -0.538280
      4          1           0        0.091888   -0.011338   -1.206468
      5          1           0        1.600087    0.382401   -0.932840
      6          1           0        0.852632    0.343850    3.175987
      7          1           0       -0.633926   -0.044355    2.906270
 ---------------------------------------------------------------------
                    Distance matrix (angstroms):
                    1          2          3          4          5
     1  Cu   0.000000
     2  O    1.385203   0.000000
     3  O    1.850024   3.088656   0.000000
     4  H    2.546456   3.715836   0.976627   0.000000
     5  H    2.546521   3.715898   0.976627   1.582582   0.000000
     6  H    2.148759   0.996739   3.732669   4.462152   4.176437
     7  H    2.148751   0.996727   3.732717   4.176423   4.462253
                    6          7
     6  H    0.000000
     7  H    1.559905   0.000000
 Stoichiometry    CuH4O2(2+,2)
 Framework group  C1[X(CuH4O2)]
 Deg. of freedom    15
 Full point group                 C1      NOp   1
 Largest Abelian subgroup         C1      NOp   1
 Largest concise Abelian subgroup C1      NOp   1
                         Standard orientation:                         
 ---------------------------------------------------------------------
 Center     Atomic      Atomic             Coordinates (Angstroms)
 Number     Number       Type             X           Y           Z
 ---------------------------------------------------------------------
      1         29           0       -0.103364    0.211929   -0.000037
      2          8           0       -1.393752   -0.291743    0.000048
      3          8           0        1.694194   -0.225537    0.000035
      4          1           0        2.234803   -0.413415    0.791391
      5          1           0        2.234878   -0.413746   -0.791191
      6          1           0       -1.937802   -0.590498   -0.779851
      7          1           0       -1.937867   -0.590060    0.780054
 ---------------------------------------------------------------------
 Rotational constants (GHZ):     59.8755175      5.1691357      4.9922577

 **********************************************************************

            Population analysis using the SCF density.

 **********************************************************************

 Orbital symmetries:
 Alpha Orbitals:
       Occupied  (A) (A) (A) (A) (A) (A) (A) (A) (A) (A) (A) (A)
                 (A) (A) (A) (A) (A) (A) (A) (A) (A) (A) (A) (A)
       Virtual   (A) (A) (A) (A) (A) (A) (A) (A) (A) (A) (A) (A)
                 (A) (A) (A) (A) (A) (A) (A) (A) (A) (A) (A) (A)
                 (A) (A) (A) (A) (A) (A) (A) (A) (A) (A) (A) (A)
                 (A) (A) (A) (A) (A) (A) (A) (A) (A) (A) (A) (A)
                 (A) (A) (A) (A) (A) (A) (A) (A) (A) (A) (A) (A)
                 (A) (A) (A) (A) (A) (A) (A) (A) (A) (A)
 Beta  Orbitals:
       Occupied  (A) (A) (A) (A) (A) (A) (A) (A) (A) (A) (A) (A)
                 (A) (A) (A) (A) (A) (A) (A) (A) (A) (A) (A)
       Virtual   (A) (A) (A) (A) (A) (A) (A) (A) (A) (A) (A) (A)
                 (A) (A) (A) (A) (A) (A) (A) (A) (A) (A) (A) (A)
                 (A) (A) (A) (A) (A) (A) (A) (A) (A) (A) (A) (A)
                 (A) (A) (A) (A) (A) (A) (A) (A) (A) (A) (A) (A)
                 (A) (A) (A) (A) (A) (A) (A) (A) (A) (A) (A) (A)
                 (A) (A) (A) (A) (A) (A) (A) (A) (A) (A) (A)
 The electronic state is 2-A.
 Alpha  occ. eigenvalues -- -323.58793 -39.41087 -34.64387 -34.63074 -34.61002
 Alpha  occ. eigenvalues --  -19.71527 -19.62453  -4.94702  -3.48456  -3.44120
 Alpha  occ. eigenvalues --   -3.40029  -1.62191  -1.50570  -1.14419  -1.12835
 Alpha  occ. eigenvalues --   -1.04126  -1.02127  -0.94961  -0.89353  -0.89284
 Alpha  occ. eigenvalues --   -0.88202  -0.85489  -0.82157  -0.79998
 Alpha virt. eigenvalues --   -0.45731  -0.37518  -0.33585  -0.31136  -0.27042
 Alpha virt. eigenvalues --   -0.19811  -0.18372  -0.04065  -0.02816   0.01517
 Alpha virt. eigenvalues --    0.14251   0.23060   0.28993   0.29696   0.37384
 Alpha virt. eigenvalues --    0.39388   0.58622   0.67832   0.86837   0.88891
 Alpha virt. eigenvalues --    0.94563   0.97080   1.02325   1.10862   1.19840
 Alpha virt. eigenvalues --    1.52131   1.54229   1.59544   1.60012   1.63604
 Alpha virt. eigenvalues --    2.12407   2.15432   2.23525   2.25929   2.32947
 Alpha virt. eigenvalues --    2.49919   2.63340   2.65539   2.67067   2.92917
 Alpha virt. eigenvalues --    3.14422   3.38288   3.38600   3.38831   3.39626
 Alpha virt. eigenvalues --    3.53843   3.63136   3.70842   4.23975   4.26832
 Alpha virt. eigenvalues --    4.41596   4.47562   4.50721   5.33718   6.58223
 Alpha virt. eigenvalues --    6.58280   6.70812   6.76321   6.97464   8.85510
 Alpha virt. eigenvalues --    8.87748   9.52509  31.52821  42.23325  42.26037
 Alpha virt. eigenvalues --   42.71775  49.20189  49.23998 183.55422 978.82495
  Beta  occ. eigenvalues -- -323.58774 -39.39022 -34.61911 -34.61098 -34.60420
  Beta  occ. eigenvalues --  -19.70962 -19.62116  -4.90559  -3.41954  -3.39068
  Beta  occ. eigenvalues --   -3.38607  -1.60777  -1.49813  -1.12800  -1.12236
  Beta  occ. eigenvalues --   -1.01850  -0.98286  -0.93768  -0.87277  -0.87117
  Beta  occ. eigenvalues --   -0.86238  -0.81358  -0.79698
  Beta virt. eigenvalues --   -0.64424  -0.45191  -0.37245  -0.33411  -0.30875
  Beta virt. eigenvalues --   -0.26945  -0.19611  -0.18307  -0.03971  -0.02565
  Beta virt. eigenvalues --    0.01645   0.15776   0.24047   0.29293   0.30799
  Beta virt. eigenvalues --    0.37654   0.39615   0.59409   0.68376   0.87553
  Beta virt. eigenvalues --    0.90033   0.96144   1.00342   1.02859   1.12130
  Beta virt. eigenvalues --    1.20459   1.53902   1.54353   1.59753   1.60068
  Beta virt. eigenvalues --    1.63731   2.13853   2.16976   2.25054   2.26786
  Beta virt. eigenvalues --    2.33948   2.51366   2.64032   2.66025   2.68120
  Beta virt. eigenvalues --    2.93204   3.16306   3.39159   3.39407   3.41316
  Beta virt. eigenvalues --    3.42022   3.57031   3.65030   3.71863   4.25178
  Beta virt. eigenvalues --    4.28954   4.42161   4.48120   4.51009   5.35217
  Beta virt. eigenvalues --    6.59924   6.59941   6.77963   6.78501   6.98900
  Beta virt. eigenvalues --    8.88683   8.88731   9.56141  31.55557  42.25942
  Beta virt. eigenvalues --   42.26869  42.74862  49.20728  49.24362 183.56470
  Beta virt. eigenvalues --  978.82714
          Condensed to atoms (all electrons):
               1          2          3          4          5          6
     1  Cu  27.451796   0.040397   0.101886  -0.005942  -0.005941  -0.013120
     2  O    0.040397   8.376845  -0.003544   0.000198   0.000198   0.226523
     3  O    0.101886  -0.003544   8.306468   0.245231   0.245232   0.000335
     4  H   -0.005942   0.000198   0.245231   0.208300  -0.015025  -0.000009
     5  H   -0.005941   0.000198   0.245232  -0.015025   0.208290   0.000069
     6  H   -0.013120   0.226523   0.000335  -0.000009   0.000069   0.208520
     7  H   -0.013118   0.226523   0.000335   0.000069  -0.000009  -0.014657
               7
     1  Cu  -0.013118
     2  O    0.226523
     3  O    0.000335
     4  H    0.000069
     5  H   -0.000009
     6  H   -0.014657
     7  H    0.208519
          Atomic-Atomic Spin Densities.
               1          2          3          4          5          6
     1  Cu   0.764180  -0.065523  -0.019176   0.000443   0.000443   0.000638
     2  O   -0.065523   0.302695  -0.004556   0.000045   0.000045  -0.002040
     3  O   -0.019176  -0.004556   0.131782  -0.001282  -0.001282  -0.000042
     4  H    0.000443   0.000045  -0.001282  -0.001637   0.000276   0.000000
     5  H    0.000443   0.000045  -0.001282   0.000276  -0.001636  -0.000003
     6  H    0.000638  -0.002040  -0.000042   0.000000  -0.000003  -0.004926
     7  H    0.000637  -0.002040  -0.000042  -0.000003   0.000000   0.000696
               7
     1  Cu   0.000637
     2  O   -0.002040
     3  O   -0.000042
     4  H   -0.000003
     5  H    0.000000
     6  H    0.000696
     7  H   -0.004925
 Mulliken charges and spin densities:
               1          2
     1  Cu   1.444041   0.681642
     2  O   -0.867140   0.228626
     3  O   -0.895942   0.105402
     4  H    0.567178  -0.002158
     5  H    0.567186  -0.002157
     6  H    0.592340  -0.005678
     7  H    0.592338  -0.005676
 Sum of Mulliken charges =   2.00000   1.00000
 Mulliken charges and spin densities with hydrogens summed into heavy atoms:
               1          2
     1  Cu   1.444041   0.681642
     2  O    0.317538   0.217272
     3  O    0.238422   0.101086
 Electronic spatial extent (au):  <R**2>=            241.2298
 Charge=              2.0000 electrons
 Dipole moment (field-independent basis, Debye):
    X=             -0.7465    Y=             -1.9955    Z=              0.0005  Tot=              2.1306
 Quadrupole moment (field-independent basis, Debye-Ang):
   XX=              7.8740   YY=            -19.0492   ZZ=            -14.4788
   XY=              1.3122   XZ=             -0.0003   YZ=              0.0013
 Traceless Quadrupole moment (field-independent basis, Debye-Ang):
   XX=             16.4253   YY=            -10.4979   ZZ=             -5.9275
   XY=              1.3122   XZ=             -0.0003   YZ=              0.0013
 Octapole moment (field-independent basis, Debye-Ang**2):
  XXX=              6.8960  YYY=              4.1499  ZZZ=              0.0013  XYY=             -3.1354
  XXY=            -17.4733  XXZ=              0.0035  XZZ=             -0.1270  YZZ=             -1.8869
  YYZ=             -0.0019  XYZ=              0.0001
 Hexadecapole moment (field-independent basis, Debye-Ang**3):
 XXXX=            -40.9671 YYYY=            -21.9589 ZZZZ=            -12.3846 XXXY=              0.0333
 XXXZ=             -0.0029 YYYX=              1.6867 YYYZ=              0.0017 ZZZX=              0.0000
 ZZZY=              0.0005 XXYY=            -28.8811 XXZZ=             -6.8049 YYZZ=             -4.7829
 XXYZ=              0.0056 YYXZ=              0.0006 ZZXY=              0.8235
 N-N= 2.151664977124D+02 E-N=-4.690222998357D+03  KE= 1.792499521554D+03
                          Isotropic Fermi Contact Couplings
        Atom                 a.u.       MegaHertz       Gauss      10(-4) cm-1
     1  Cu(63)            -0.02800     -33.20803     -11.84945     -11.07701
     2  O(17)              0.05495     -33.31099     -11.88619     -11.11135
     3  O(17)              0.05469     -33.15001     -11.82875     -11.05765
     4  H(1)              -0.00091      -4.07637      -1.45455      -1.35973
     5  H(1)              -0.00091      -4.07402      -1.45371      -1.35895
     6  H(1)              -0.00234     -10.44094      -3.72559      -3.48272
     7  H(1)              -0.00233     -10.43692      -3.72415      -3.48138
 --------------------------------------------------------
       Center         ----  Spin Dipole Couplings  ----
                      3XX-RR        3YY-RR        3ZZ-RR
 --------------------------------------------------------
     1   Atom        1.844561      1.687074     -3.531635
     2   Atom        0.313278      0.146193     -0.459471
     3   Atom        0.140305      0.122580     -0.262884
     4   Atom        0.008257     -0.014078      0.005821
     5   Atom        0.008259     -0.014070      0.005812
     6   Atom        0.008174     -0.018196      0.010022
     7   Atom        0.008178     -0.018220      0.010042
 --------------------------------------------------------
                        XY            XZ            YZ
 --------------------------------------------------------
     1   Atom        1.123082     -0.000268     -0.001217
     2   Atom       -0.608208      0.000196     -0.000187
     3   Atom        0.369506     -0.000069     -0.000072
     4   Atom       -0.004658      0.020212     -0.009009
     5   Atom       -0.004667     -0.020211      0.009018
     6   Atom        0.011525      0.031613      0.022504
     7   Atom        0.011510     -0.031620     -0.022488
 --------------------------------------------------------


 ---------------------------------------------------------------------------------
              Anisotropic Spin Dipole Couplings in Principal Axis System
 ---------------------------------------------------------------------------------

       Atom             a.u.   MegaHertz   Gauss  10(-4) cm-1        Axes

              Baa    -3.5316  -500.015  -178.418  -166.787  0.0000  0.0002  1.0000
     1 Cu(63) Bbb     0.6400    90.609    32.332    30.224 -0.6819  0.7314 -0.0002
              Bcc     2.8917   409.406   146.086   136.563  0.7314  0.6819 -0.0002
 
              Baa    -0.4595    33.247    11.863    11.090 -0.0001  0.0003  1.0000
     2 O(17)  Bbb    -0.3842    27.799     9.919     9.273  0.6572  0.7537 -0.0002
              Bcc     0.8437   -61.046   -21.783   -20.363  0.7537 -0.6572  0.0002
 
              Baa    -0.2629    19.022     6.788     6.345  0.0000  0.0002  1.0000
     3 O(17)  Bbb    -0.2382    17.234     6.149     5.749 -0.6986  0.7155 -0.0001
              Bcc     0.5011   -36.256   -12.937   -12.094  0.7155  0.6986 -0.0001
 
              Baa    -0.0183    -9.768    -3.486    -3.258 -0.2465  0.8220  0.5134
     4 H(1)   Bbb    -0.0111    -5.921    -2.113    -1.975  0.6713  0.5269 -0.5214
              Bcc     0.0294    15.689     5.598     5.233  0.6991 -0.2161  0.6816
 
              Baa    -0.0183    -9.768    -3.486    -3.258 -0.2465  0.8217 -0.5138
     5 H(1)   Bbb    -0.0111    -5.921    -2.113    -1.975  0.6712  0.5272  0.5211
              Bcc     0.0294    15.690     5.598     5.234  0.6991 -0.2164 -0.6815
 
              Baa    -0.0320   -17.083    -6.095    -5.698  0.2507  0.7624 -0.5966
     6 H(1)   Bbb    -0.0174    -9.307    -3.321    -3.104  0.7352 -0.5508 -0.3950
              Bcc     0.0495    26.390     9.416     8.803  0.6297  0.3397  0.6986
 
              Baa    -0.0320   -17.083    -6.096    -5.698  0.2506  0.7627  0.5962
     7 H(1)   Bbb    -0.0174    -9.307    -3.321    -3.104  0.7352 -0.5506  0.3953
              Bcc     0.0495    26.390     9.417     8.803 -0.6298 -0.3393  0.6987
 

 ---------------------------------------------------------------------------------

 B after Tr=     1.388448    1.528374   -0.789696
         Rot=    0.737983   -0.152177    0.028287    0.656828 Ang= -84.88 deg.
 Atom   6 needs variable   3=   0.9967386218 but is    0.9766269887
 Input z-matrix variables are not compatible with final structure.
 1\1\GINC-MILLENNIUM-FALCON\Scan\UB3LYP\6-311G(d)\Cu1H4O2(2+,2)\JAKE\17
 -Jun-2016\0\\#opt=(modredundant,maxcycles=350) B3LYP/6-311G* scf=xqc\\
 cu2(h20)2\\2,2\Cu,-0.4700617749,-1.0189001109,0.998532299\O,-0.8117317
 734,-0.5956234455,2.2724576609\O,-0.2829411404,-0.5066892176,-0.769295
 8909\H,-0.9951110554,-0.494889386,-1.437483777\H,0.5130872328,-0.10115
 00852,-1.1638556265\H,-0.2343677548,-0.1397014922,2.944970741\H,-1.720
 9254396,-0.5279068074,2.6752545534\\Version=EM64L-G09RevD.01\State=2-A
 \HF=-1792.5443775,-1792.5436931,-1792.543102,-1792.5426346,-1792.54234
 32,-1792.5422831,-1792.5425094,-1792.543096,-1792.5479309,-1792.549548
 9,-1792.5518121,-1792.5548084,-1792.5586054,-1792.5632666,-1792.568808
 3,-1792.5751644,-1792.5821449,-1792.5893847,-1792.5963063,-1792.602056
 7,-1792.605378,-1792.6042723,-1792.5951771,-1792.5726679,-1792.528225,
 -1792.4485515\S2=0.752311,0.752287,0.752263,0.75224,0.752216,0.752191,
 0.752166,0.752139,0.759163,0.758564,0.75789,0.757141,0.756304,0.755392
 ,0.754429,0.753522,0.752754,0.752195,0.751833,0.751625,0.751528,0.7515
 1,0.751541,0.751595,0.751653,0.751696\S2-1=0.,0.,0.,0.,0.,0.,0.,0.,0.,
 0.,0.,0.,0.,0.,0.,0.,0.,0.,0.,0.,0.,0.,0.,0.,0.,0.\S2A=0.750004,0.7500
 04,0.750004,0.750003,0.750003,0.750003,0.750003,0.750003,0.750011,0.75
 001,0.750009,0.750008,0.750007,0.750006,0.750005,0.750004,0.750003,0.7
 50002,0.750002,0.750002,0.750002,0.750002,0.750002,0.750002,0.750002,0
 .750002\RMSD=7.513e-09,1.385e-09,6.538e-09,6.143e-09,2.438e-09,7.152e-
 09,8.065e-09,6.954e-09,7.335e-09,5.680e-09,2.875e-09,3.021e-09,3.625e-
 09,4.966e-09,3.967e-09,6.733e-09,4.558e-09,1.010e-09,7.515e-10,9.598e-
 10,9.805e-09,1.976e-09,3.326e-09,6.252e-09,3.397e-09,3.797e-09\PG=C01 
 [X(Cu1H4O2)]\\@


 WE ARE REACHING THE STAGE WHERE THE PROBLEMS WE MUST SOLVE ARE 
 GOING TO BECOME INSOLUBLE WITHOUT COMPUTERS.
 I DO NOT FEAR COMPUTERS.  I FEAR THE LACK OF THEM.

                                   -- ISSAC ASIMOV
 Job cpu time:       0 days  1 hours  8 minutes 31.7 seconds.
 File lengths (MBytes):  RWF=     10 Int=      0 D2E=      0 Chk=      3 Scr=      1
 Normal termination of Gaussian 09 at Fri Jun 17 15:41:52 2016.
