 Entering Gaussian System, Link 0=g09
 Input=2coord_b3lyp_A_F_115.inp
 Output=2coord_b3lyp_A_F_115.log
 Initial command:
 /usr/local/g09/l1.exe "./Gau-6184.inp" -scrdir="./"
 Entering Link 1 = /usr/local/g09/l1.exe PID=      6186.
  
 Copyright (c) 1988,1990,1992,1993,1995,1998,2003,2009,2013,
            Gaussian, Inc.  All Rights Reserved.
  
 This is part of the Gaussian(R) 09 program.  It is based on
 the Gaussian(R) 03 system (copyright 2003, Gaussian, Inc.),
 the Gaussian(R) 98 system (copyright 1998, Gaussian, Inc.),
 the Gaussian(R) 94 system (copyright 1995, Gaussian, Inc.),
 the Gaussian 92(TM) system (copyright 1992, Gaussian, Inc.),
 the Gaussian 90(TM) system (copyright 1990, Gaussian, Inc.),
 the Gaussian 88(TM) system (copyright 1988, Gaussian, Inc.),
 the Gaussian 86(TM) system (copyright 1986, Carnegie Mellon
 University), and the Gaussian 82(TM) system (copyright 1983,
 Carnegie Mellon University). Gaussian is a federally registered
 trademark of Gaussian, Inc.
  
 This software contains proprietary and confidential information,
 including trade secrets, belonging to Gaussian, Inc.
  
 This software is provided under written license and may be
 used, copied, transmitted, or stored only in accord with that
 written license.
  
 The following legend is applicable only to US Government
 contracts under FAR:
  
                    RESTRICTED RIGHTS LEGEND
  
 Use, reproduction and disclosure by the US Government is
 subject to restrictions as set forth in subparagraphs (a)
 and (c) of the Commercial Computer Software - Restricted
 Rights clause in FAR 52.227-19.
  
 Gaussian, Inc.
 340 Quinnipiac St., Bldg. 40, Wallingford CT 06492
  
  
 ---------------------------------------------------------------
 Warning -- This program may not be used in any manner that
 competes with the business of Gaussian, Inc. or will provide
 assistance to any competitor of Gaussian, Inc.  The licensee
 of this program is prohibited from giving any competitor of
 Gaussian, Inc. access to this program.  By using this program,
 the user acknowledges that Gaussian, Inc. is engaged in the
 business of creating and licensing software in the field of
 computational chemistry and represents and warrants to the
 licensee that it is not a competitor of Gaussian, Inc. and that
 it will not use this program in any manner prohibited above.
 ---------------------------------------------------------------
  

 Cite this work as:
 Gaussian 09, Revision D.01,
 M. J. Frisch, G. W. Trucks, H. B. Schlegel, G. E. Scuseria, 
 M. A. Robb, J. R. Cheeseman, G. Scalmani, V. Barone, B. Mennucci, 
 G. A. Petersson, H. Nakatsuji, M. Caricato, X. Li, H. P. Hratchian, 
 A. F. Izmaylov, J. Bloino, G. Zheng, J. L. Sonnenberg, M. Hada, 
 M. Ehara, K. Toyota, R. Fukuda, J. Hasegawa, M. Ishida, T. Nakajima, 
 Y. Honda, O. Kitao, H. Nakai, T. Vreven, J. A. Montgomery, Jr., 
 J. E. Peralta, F. Ogliaro, M. Bearpark, J. J. Heyd, E. Brothers, 
 K. N. Kudin, V. N. Staroverov, T. Keith, R. Kobayashi, J. Normand, 
 K. Raghavachari, A. Rendell, J. C. Burant, S. S. Iyengar, J. Tomasi, 
 M. Cossi, N. Rega, J. M. Millam, M. Klene, J. E. Knox, J. B. Cross, 
 V. Bakken, C. Adamo, J. Jaramillo, R. Gomperts, R. E. Stratmann, 
 O. Yazyev, A. J. Austin, R. Cammi, C. Pomelli, J. W. Ochterski, 
 R. L. Martin, K. Morokuma, V. G. Zakrzewski, G. A. Voth, 
 P. Salvador, J. J. Dannenberg, S. Dapprich, A. D. Daniels, 
 O. Farkas, J. B. Foresman, J. V. Ortiz, J. Cioslowski, 
 and D. J. Fox, Gaussian, Inc., Wallingford CT, 2013.
 
 ******************************************
 Gaussian 09:  EM64L-G09RevD.01 24-Apr-2013
                17-Jun-2016 
 ******************************************
 %mem=2GB
 %nprocshared=1
 Will use up to    1 processors via shared memory.
 %chk=pescuh2o2.chk
 -------------------------------------------------------
 #opt=(modredundant,maxcycles=350) B3LYP/6-311G* scf=xqc
 -------------------------------------------------------
 1/6=350,14=-1,18=120,19=15,26=3,38=1/1,3;
 2/9=110,12=2,17=6,18=5,40=1/2;
 3/5=4,6=6,7=1,11=2,16=1,25=1,30=1,71=1,74=-5/1,2,3;
 4//1;
 5/5=2,8=3,13=1,38=5/2,8;
 6/7=2,8=2,9=2,10=2,28=1/1;
 7//1,2,3,16;
 1/6=350,14=-1,18=20,19=15,26=3/3(2);
 2/9=110/2;
 99//99;
 2/9=110/2;
 3/5=4,6=6,7=1,11=2,16=1,25=1,30=1,71=1,74=-5/1,2,3;
 4/5=5,16=3,69=1/1;
 5/5=2,8=3,13=1,38=5/2,8;
 7//1,2,3,16;
 1/6=350,14=-1,18=20,19=15,26=3/3(-5);
 2/9=110/2;
 6/7=2,8=2,9=2,10=2,19=2,28=1/1;
 99/9=1/99;
 ---------
 cu2(h20)2
 ---------
 Symbolic Z-matrix:
 Charge =  2 Multiplicity = 2
 Cu
 O                    1    A
 O                    1    B        2    H
 H                    3    C        1    D        2    E        0
 H                    3    C        1    D        2    F        0
 H                    2    C        1    D        3    G        0
 H                    2    C        1    D        6    E        0
       Variables:
  A                     3.8852                   
  B                     1.88506                  
  C                     0.95                     
  D                   109.471                    
  E                   180.                       
  F                     0.                       
  G                    90.                       
  H                   115.                       
 
     4 tetrahedral angles replaced.
 Add virtual bond connecting atoms O2         and Cu1        Dist= 7.34D+00.
 The following ModRedundant input section has been read:
 A       2       1       3 F                                                   
 B       1       2 S  25 -0.100                                                
 

 GradGradGradGradGradGradGradGradGradGradGradGradGradGradGradGradGradGrad
 Berny optimization.
 Initialization pass.
                           ----------------------------
                           !    Initial Parameters    !
                           ! (Angstroms and Degrees)  !
 --------------------------                            --------------------------
 ! Name  Definition              Value          Derivative Info.                !
 --------------------------------------------------------------------------------
 ! R1    R(1,2)                  3.8852         Scan                            !
 ! R2    R(1,3)                  1.8851         estimate D2E/DX2                !
 ! R3    R(2,6)                  0.95           estimate D2E/DX2                !
 ! R4    R(2,7)                  0.95           estimate D2E/DX2                !
 ! R5    R(3,4)                  0.95           estimate D2E/DX2                !
 ! R6    R(3,5)                  0.95           estimate D2E/DX2                !
 ! A1    A(2,1,3)              115.0            Frozen                          !
 ! A2    A(1,2,6)              109.4712         estimate D2E/DX2                !
 ! A3    A(1,2,7)              109.4712         estimate D2E/DX2                !
 ! A4    A(6,2,7)              141.0576         estimate D2E/DX2                !
 ! A5    A(1,3,4)              109.4712         estimate D2E/DX2                !
 ! A6    A(1,3,5)              109.4712         estimate D2E/DX2                !
 ! A7    A(4,3,5)              141.0576         estimate D2E/DX2                !
 ! D1    D(3,1,2,6)             90.0            estimate D2E/DX2                !
 ! D2    D(3,1,2,7)            -90.0            estimate D2E/DX2                !
 ! D3    D(2,1,3,4)            180.0            estimate D2E/DX2                !
 ! D4    D(2,1,3,5)              0.0            estimate D2E/DX2                !
 ! D5    D(1,2,6,7)            180.0            estimate D2E/DX2                !
 ! D6    D(1,3,4,5)            180.0            estimate D2E/DX2                !
 --------------------------------------------------------------------------------
 Trust Radius=3.00D-01 FncErr=1.00D-07 GrdErr=1.00D-06
 Number of optimizations in scan=  26
 Number of steps in this run=    100 maximum allowed number of steps=    100.
 GradGradGradGradGradGradGradGradGradGradGradGradGradGradGradGradGradGrad

                          Input orientation:                          
 ---------------------------------------------------------------------
 Center     Atomic      Atomic             Coordinates (Angstroms)
 Number     Number       Type             X           Y           Z
 ---------------------------------------------------------------------
      1         29           0        0.000000    0.000000    0.000000
      2          8           0        0.000000    0.000000    3.885203
      3          8           0        1.708445    0.000000   -0.796661
      4          1           0        1.616917    0.000000   -1.742242
      5          1           0        2.373969    0.000000   -0.118739
      6          1           0        0.000000    0.895669    4.201870
      7          1           0        0.000000   -0.895669    4.201870
 ---------------------------------------------------------------------
                    Distance matrix (angstroms):
                    1          2          3          4          5
     1  Cu   0.000000
     2  O    3.885203   0.000000
     3  O    1.885061   4.983838   0.000000
     4  H    2.376936   5.855131   0.950000   0.000000
     5  H    2.376936   4.654812   0.950000   1.791337   0.000000
     6  H    4.296269   0.950000   5.357828   6.224878   5.010550
     7  H    4.296269   0.950000   5.357828   6.224878   5.010550
                    6          7
     6  H    0.000000
     7  H    1.791337   0.000000
 Stoichiometry    CuH4O2(2+,2)
 Framework group  CS[SG(CuH2O2),X(H2)]
 Deg. of freedom    10
 Full point group                 CS      NOp   2
 Largest Abelian subgroup         CS      NOp   2
 Largest concise Abelian subgroup CS      NOp   2
                         Standard orientation:                         
 ---------------------------------------------------------------------
 Center     Atomic      Atomic             Coordinates (Angstroms)
 Number     Number       Type             X           Y           Z
 ---------------------------------------------------------------------
      1         29           0        0.000000    0.732551    0.000000
      2          8           0       -1.911315   -2.650004    0.000000
      3          8           0        1.879331    0.585679    0.000000
      4          1           0        2.264819    1.453953    0.000000
      5          1           0        2.125250   -0.331939    0.000000
      6          1           0       -2.067098   -2.925702    0.895669
      7          1           0       -2.067098   -2.925702   -0.895669
 ---------------------------------------------------------------------
 Rotational constants (GHZ):     13.1310051      1.8830633      1.6644306
 Standard basis: 6-311G(d) (5D, 7F)
 There are    74 symmetry adapted cartesian basis functions of A'  symmetry.
 There are    28 symmetry adapted cartesian basis functions of A"  symmetry.
 There are    67 symmetry adapted basis functions of A'  symmetry.
 There are    27 symmetry adapted basis functions of A"  symmetry.
    94 basis functions,   165 primitive gaussians,   102 cartesian basis functions
    24 alpha electrons       23 beta electrons
       nuclear repulsion energy       145.5882044352 Hartrees.
 NAtoms=    7 NActive=    7 NUniq=    6 SFac= 1.36D+00 NAtFMM=   60 NAOKFM=F Big=F
 Integral buffers will be    131072 words long.
 Raffenetti 2 integral format.
 Two-electron integral symmetry is turned on.
 One-electron integrals computed using PRISM.
 NBasis=    94 RedAO= T EigKep=  1.33D-02  NBF=    67    27
 NBsUse=    94 1.00D-06 EigRej= -1.00D+00 NBFU=    67    27
 ExpMin= 4.08D-02 ExpMax= 3.37D+05 ExpMxC= 1.14D+04 IAcc=2 IRadAn=         4 AccDes= 0.00D+00
 Harris functional with IExCor=  402 and IRadAn=       4 diagonalized for initial guess.
 HarFok:  IExCor=  402 AccDes= 0.00D+00 IRadAn=         4 IDoV= 1 UseB2=F ITyADJ=14
 ICtDFT=  3500011 ScaDFX=  1.000000  1.000000  1.000000  1.000000
 FoFCou: FMM=F IPFlag=           0 FMFlag=      100000 FMFlg1=           0
         NFxFlg=           0 DoJE=T BraDBF=F KetDBF=T FulRan=T
         wScrn=  0.000000 ICntrl=     500 IOpCl=  0 I1Cent=   200000004 NGrid=           0
         NMat0=    1 NMatS0=      1 NMatT0=    0 NMatD0=    1 NMtDS0=    0 NMtDT0=    0
 Petite list used in FoFCou.
 Initial guess orbital symmetries:
 Alpha Orbitals:
       Occupied  (A') (A') (A') (A') (A") (A') (A') (A') (A') (A')
                 (A") (A') (A') (A') (A") (A') (A") (A') (A') (A')
                 (A') (A') (A") (A")
       Virtual   (A') (A') (A') (A') (A") (A') (A') (A') (A') (A")
                 (A") (A') (A') (A') (A') (A") (A') (A') (A") (A')
                 (A') (A") (A') (A") (A') (A') (A') (A') (A') (A")
                 (A") (A") (A") (A') (A') (A') (A') (A") (A') (A')
                 (A') (A') (A") (A') (A") (A') (A") (A') (A") (A')
                 (A') (A') (A") (A') (A") (A') (A") (A') (A') (A")
                 (A') (A') (A') (A") (A') (A') (A') (A') (A') (A')
 Beta  Orbitals:
       Occupied  (A') (A') (A') (A') (A") (A') (A') (A') (A') (A')
                 (A") (A') (A') (A') (A") (A') (A") (A') (A') (A')
                 (A') (A') (A")
       Virtual   (A") (A') (A') (A') (A') (A") (A') (A') (A') (A')
                 (A") (A") (A') (A') (A') (A') (A") (A') (A') (A")
                 (A') (A') (A") (A') (A") (A') (A') (A') (A') (A')
                 (A") (A") (A") (A") (A') (A') (A') (A') (A") (A')
                 (A') (A') (A') (A") (A') (A") (A') (A") (A') (A")
                 (A') (A') (A') (A") (A') (A") (A') (A") (A') (A')
                 (A") (A') (A') (A') (A") (A') (A') (A') (A') (A')
                 (A')
 The electronic state of the initial guess is 2-A".
 Initial guess <Sx>= 0.0000 <Sy>= 0.0000 <Sz>= 0.5000 <S**2>= 0.7500 S= 0.5000
 Keep R1 and R2 ints in memory in symmetry-blocked form, NReq=15545797.
 Requested convergence on RMS density matrix=1.00D-08 within  64 cycles.
 Requested convergence on MAX density matrix=1.00D-06.
 Requested convergence on             energy=1.00D-06.
 No special actions if energy rises.
 EnCoef did   100 forward-backward iterations
 EnCoef did   100 forward-backward iterations
 EnCoef did   100 forward-backward iterations
 EnCoef did   100 forward-backward iterations
 EnCoef did    10 forward-backward iterations
 EnCoef did   100 forward-backward iterations
 EnCoef did    38 forward-backward iterations
 EnCoef did   100 forward-backward iterations
 EnCoef did   100 forward-backward iterations
 EnCoef did   100 forward-backward iterations
 EnCoef did   100 forward-backward iterations
 EnCoef did   100 forward-backward iterations
 EnCoef did   100 forward-backward iterations
 EnCoef did   100 forward-backward iterations
 Rare condition: small coef for last iteration:  0.000D+00
 Rare condition: small coef for last iteration:  0.000D+00
 Rare condition: small coef for last iteration:  0.000D+00
 Rare condition: small coef for last iteration:  0.000D+00
 Rare condition: small coef for last iteration:  0.000D+00
 Rare condition: small coef for last iteration:  0.000D+00
 Rare condition: small coef for last iteration:  0.000D+00
 Rare condition: small coef for last iteration:  0.000D+00
 Rare condition: small coef for last iteration:  0.000D+00
 Rare condition: small coef for last iteration:  0.000D+00
 Rare condition: small coef for last iteration:  0.000D+00
 Rare condition: small coef for last iteration:  0.000D+00
 Rare condition: small coef for last iteration:  0.000D+00
 Rare condition: small coef for last iteration:  0.000D+00
 Rare condition: small coef for last iteration:  0.000D+00
 Rare condition: small coef for last iteration:  0.000D+00
 Rare condition: small coef for last iteration:  0.000D+00
 Rare condition: small coef for last iteration:  0.000D+00
 Rare condition: small coef for last iteration:  0.000D+00
 Rare condition: small coef for last iteration:  0.000D+00
 Rare condition: small coef for last iteration:  0.000D+00
 Rare condition: small coef for last iteration:  0.000D+00
 >>>>>>>>>> Convergence criterion not met.
 SCF Done:  E(UB3LYP) =  -1792.39513415     A.U. after   65 cycles
            NFock= 64  Conv=0.46D-06     -V/T= 1.9988
 <Sx>= 0.0000 <Sy>= 0.0000 <Sz>= 0.5000 <S**2>= 0.7516 S= 0.5008
 <L.S>= 0.000000000000E+00
 Annihilation of the first spin contaminant:
 S**2 before annihilation     0.7516,   after     0.7500
 Keep R1 and R2 ints in memory in symmetry-blocked form, NReq=15602405.
 Gradient too large for Newton-Raphson -- use scaled steepest descent instead.
  Beta Gap=    -0.401 HL deriv= 8.18D-18 Rot set to   7.97D-01
     Minimum is close to point  2 DX=  7.59D-03 DF= -3.58D-05 DXR=  2.47D-02 DFR=  6.09D-04 which will be used.
 Gradient too large for Newton-Raphson -- use scaled steepest descent instead.
     Accept linear search using points  2 and  3.
 Gradient too large for Newton-Raphson -- use scaled steepest descent instead.
 Gradient too large for Newton-Raphson -- use scaled steepest descent instead.
 Gradient too large for Newton-Raphson -- use scaled steepest descent instead.
     Accept linear search using points  1 and  2.
 Gradient too large for Newton-Raphson -- use scaled steepest descent instead.
     Accept linear search using points  3 and  4.
 Gradient too large for Newton-Raphson -- use scaled steepest descent instead.
     Minimum is close to point  3 DX=  1.86D-02 DF= -1.22D-05 DXR=  5.85D-02 DFR=  3.43D-03 which will be used.
 Gradient too large for Newton-Raphson -- use scaled steepest descent instead.
     Minimum is close to point  5 DX=  7.95D-02 DF= -2.74D-06 DXR=  1.74D-02 DFR=  3.03D-04 which will be used.
 Gradient too large for Newton-Raphson -- use scaled steepest descent instead.
 Gradient too large for Newton-Raphson -- use scaled steepest descent instead.
 Gradient too large for Newton-Raphson -- use scaled steepest descent instead.
     Accept linear search using points  1 and  2.
 Gradient too large for Newton-Raphson -- use scaled steepest descent instead.
 Gradient too large for Newton-Raphson -- use scaled steepest descent instead.
     Accept linear search using points  1 and  2.
 Gradient too large for Newton-Raphson -- use scaled steepest descent instead.
 Gradient too large for Newton-Raphson -- use scaled steepest descent instead.
     Accept linear search using points  1 and  2.
 LinEq1:  Iter=  0 NonCon=     1 RMS=3.63D-04 Max=1.87D-02 NDo=     1
 AX will form     1 AO Fock derivatives at one time.
 LinEq1:  Iter=  1 NonCon=     1 RMS=2.27D-03 Max=7.29D-02 NDo=     1
 LinEq1:  Iter=  2 NonCon=     1 RMS=8.06D-04 Max=2.76D-02 NDo=     1
 LinEq1:  Iter=  3 NonCon=     1 RMS=1.09D-03 Max=4.09D-02 NDo=     1
 LinEq1:  Iter=  4 NonCon=     1 RMS=3.98D-04 Max=5.30D-03 NDo=     1
 LinEq1:  Iter=  5 NonCon=     1 RMS=1.77D-04 Max=3.15D-03 NDo=     1
 LinEq1:  Iter=  6 NonCon=     1 RMS=5.99D-05 Max=2.20D-03 NDo=     1
 LinEq1:  Iter=  7 NonCon=     1 RMS=3.69D-05 Max=9.88D-04 NDo=     1
 LinEq1:  Iter=  8 NonCon=     1 RMS=3.04D-05 Max=6.63D-04 NDo=     1
 LinEq1:  Iter=  9 NonCon=     1 RMS=1.26D-05 Max=3.62D-04 NDo=     1
 LinEq1:  Iter= 10 NonCon=     1 RMS=2.94D-06 Max=8.92D-05 NDo=     1
 LinEq1:  Iter= 11 NonCon=     1 RMS=1.04D-06 Max=3.36D-05 NDo=     1
 LinEq1:  Iter= 12 NonCon=     1 RMS=3.46D-07 Max=9.69D-06 NDo=     1
 LinEq1:  Iter= 13 NonCon=     1 RMS=8.15D-08 Max=1.56D-06 NDo=     1
 LinEq1:  Iter= 14 NonCon=     1 RMS=2.04D-08 Max=4.95D-07 NDo=     1
 LinEq1:  Iter= 15 NonCon=     1 RMS=9.60D-09 Max=3.58D-07 NDo=     1
 LinEq1:  Iter= 16 NonCon=     0 RMS=2.91D-09 Max=5.04D-08 NDo=     1
 Linear equations converged to 5.756D-09 5.756D-08 after    16 iterations.
     Accept linear search using points  1 and  2.
     Minimum is close to point  2 DX= -7.03D-03 DF= -2.14D-09 DXR=  7.08D-03 DFR=  5.04D-05 which will be used.
 LinEq1:  Iter=  0 NonCon=     1 RMS=4.36D-05 Max=2.51D-03 NDo=     1
 LinEq1:  Iter=  1 NonCon=     1 RMS=5.20D-05 Max=2.02D-03 NDo=     1
 LinEq1:  Iter=  2 NonCon=     1 RMS=6.34D-05 Max=2.25D-03 NDo=     1
 LinEq1:  Iter=  3 NonCon=     1 RMS=2.85D-05 Max=6.14D-04 NDo=     1
 LinEq1:  Iter=  4 NonCon=     1 RMS=1.08D-05 Max=2.74D-04 NDo=     1
 LinEq1:  Iter=  5 NonCon=     1 RMS=9.60D-06 Max=3.25D-04 NDo=     1
 LinEq1:  Iter=  6 NonCon=     1 RMS=5.05D-06 Max=1.36D-04 NDo=     1
 LinEq1:  Iter=  7 NonCon=     1 RMS=1.87D-06 Max=3.83D-05 NDo=     1
 LinEq1:  Iter=  8 NonCon=     1 RMS=6.19D-07 Max=1.91D-05 NDo=     1
 LinEq1:  Iter=  9 NonCon=     1 RMS=2.70D-07 Max=9.27D-06 NDo=     1
 LinEq1:  Iter= 10 NonCon=     1 RMS=6.95D-08 Max=1.17D-06 NDo=     1
 LinEq1:  Iter= 11 NonCon=     1 RMS=2.21D-08 Max=5.43D-07 NDo=     1
 LinEq1:  Iter= 12 NonCon=     1 RMS=4.32D-09 Max=8.85D-08 NDo=     1
 LinEq1:  Iter= 13 NonCon=     1 RMS=1.42D-09 Max=3.85D-08 NDo=     1
 LinEq1:  Iter= 14 NonCon=     1 RMS=5.79D-10 Max=1.74D-08 NDo=     1
 LinEq1:  Iter= 15 NonCon=     0 RMS=1.88D-10 Max=3.05D-09 NDo=     1
 Linear equations converged to 1.532D-09 1.532D-08 after    15 iterations.
     Minimum is close to point  2 DX=  5.50D-02 DF= -7.28D-12 DXR=  5.21D-02 DFR=  2.79D-03 which will be used.
 LinEq1:  Iter=  0 NonCon=     1 RMS=1.53D-07 Max=8.76D-06 NDo=     1
 LinEq1:  Iter=  1 NonCon=     1 RMS=2.61D-07 Max=1.34D-05 NDo=     1
 LinEq1:  Iter=  2 NonCon=     1 RMS=5.47D-08 Max=1.03D-06 NDo=     1
 LinEq1:  Iter=  3 NonCon=     1 RMS=4.27D-08 Max=9.27D-07 NDo=     1
 LinEq1:  Iter=  4 NonCon=     1 RMS=2.98D-08 Max=8.83D-07 NDo=     1
 LinEq1:  Iter=  5 NonCon=     1 RMS=1.27D-08 Max=4.09D-07 NDo=     1
 LinEq1:  Iter=  6 NonCon=     1 RMS=9.39D-09 Max=3.95D-07 NDo=     1
 LinEq1:  Iter=  7 NonCon=     1 RMS=7.14D-09 Max=1.31D-07 NDo=     1
 LinEq1:  Iter=  8 NonCon=     1 RMS=2.64D-09 Max=1.10D-07 NDo=     1
 LinEq1:  Iter=  9 NonCon=     1 RMS=1.02D-09 Max=2.76D-08 NDo=     1
 LinEq1:  Iter= 10 NonCon=     1 RMS=2.19D-10 Max=3.72D-09 NDo=     1
 LinEq1:  Iter= 11 NonCon=     1 RMS=6.45D-11 Max=1.20D-09 NDo=     1
 LinEq1:  Iter= 12 NonCon=     1 RMS=1.89D-11 Max=3.12D-10 NDo=     1
 LinEq1:  Iter= 13 NonCon=     1 RMS=6.91D-12 Max=2.81D-10 NDo=     1
 LinEq1:  Iter= 14 NonCon=     1 RMS=3.39D-12 Max=9.00D-11 NDo=     1
 LinEq1:  Iter= 15 NonCon=     0 RMS=6.68D-13 Max=1.23D-11 NDo=     1
 Linear equations converged to 7.121D-12 7.121D-11 after    15 iterations.
 Incorrect curvature in search direction -- initial direction reversed.
 LinEq1:  Iter=  0 NonCon=     1 RMS=3.34D-07 Max=1.91D-05 NDo=     1
 LinEq1:  Iter=  1 NonCon=     1 RMS=5.69D-07 Max=2.93D-05 NDo=     1
 LinEq1:  Iter=  2 NonCon=     1 RMS=1.19D-07 Max=2.25D-06 NDo=     1
 LinEq1:  Iter=  3 NonCon=     1 RMS=9.31D-08 Max=2.02D-06 NDo=     1
 LinEq1:  Iter=  4 NonCon=     1 RMS=6.49D-08 Max=1.93D-06 NDo=     1
 LinEq1:  Iter=  5 NonCon=     1 RMS=2.77D-08 Max=8.90D-07 NDo=     1
 LinEq1:  Iter=  6 NonCon=     1 RMS=2.12D-08 Max=8.96D-07 NDo=     1
 LinEq1:  Iter=  7 NonCon=     1 RMS=1.57D-08 Max=2.89D-07 NDo=     1
 LinEq1:  Iter=  8 NonCon=     1 RMS=5.77D-09 Max=2.40D-07 NDo=     1
 LinEq1:  Iter=  9 NonCon=     1 RMS=2.22D-09 Max=6.02D-08 NDo=     1
 LinEq1:  Iter= 10 NonCon=     1 RMS=4.79D-10 Max=8.13D-09 NDo=     1
 LinEq1:  Iter= 11 NonCon=     1 RMS=1.41D-10 Max=2.64D-09 NDo=     1
 LinEq1:  Iter= 12 NonCon=     1 RMS=4.15D-11 Max=6.89D-10 NDo=     1
 LinEq1:  Iter= 13 NonCon=     1 RMS=1.53D-11 Max=6.20D-10 NDo=     1
 LinEq1:  Iter= 14 NonCon=     1 RMS=7.54D-12 Max=1.92D-10 NDo=     1
 LinEq1:  Iter= 15 NonCon=     0 RMS=1.53D-12 Max=2.98D-11 NDo=     1
 Linear equations converged to 1.554D-11 1.554D-10 after    15 iterations.
 Incorrect curvature in search direction -- initial direction reversed.
     Minimum is close to point 14 DX=  0.00D+00 DF=  0.00D+00 DXR=  0.00D+00 DFR=  0.00D+00 which will be used.
 LinEq1:  Iter=  0 NonCon=     1 RMS=1.81D-03 Max=1.04D-01 NDo=     1
 LinEq1:  Iter=  1 NonCon=     1 RMS=2.19D-03 Max=1.12D-01 NDo=     1
 LinEq1:  Iter=  2 NonCon=     1 RMS=5.15D-04 Max=1.05D-02 NDo=     1
 LinEq1:  Iter=  3 NonCon=     1 RMS=4.37D-04 Max=1.02D-02 NDo=     1
 LinEq1:  Iter=  4 NonCon=     1 RMS=2.74D-04 Max=7.83D-03 NDo=     1
 LinEq1:  Iter=  5 NonCon=     1 RMS=1.40D-04 Max=4.12D-03 NDo=     1
 LinEq1:  Iter=  6 NonCon=     1 RMS=1.26D-04 Max=3.20D-03 NDo=     1
 LinEq1:  Iter=  7 NonCon=     1 RMS=6.45D-05 Max=1.22D-03 NDo=     1
 LinEq1:  Iter=  8 NonCon=     1 RMS=1.96D-05 Max=7.21D-04 NDo=     1
 LinEq1:  Iter=  9 NonCon=     1 RMS=8.10D-06 Max=2.57D-04 NDo=     1
 LinEq1:  Iter= 10 NonCon=     1 RMS=2.01D-06 Max=3.21D-05 NDo=     1
 LinEq1:  Iter= 11 NonCon=     1 RMS=6.22D-07 Max=1.19D-05 NDo=     1
 LinEq1:  Iter= 12 NonCon=     1 RMS=1.75D-07 Max=3.30D-06 NDo=     1
 LinEq1:  Iter= 13 NonCon=     1 RMS=6.27D-08 Max=2.32D-06 NDo=     1
 LinEq1:  Iter= 14 NonCon=     1 RMS=3.00D-08 Max=7.97D-07 NDo=     1
 LinEq1:  Iter= 15 NonCon=     1 RMS=6.80D-09 Max=1.47D-07 NDo=     1
 LinEq1:  Iter= 16 NonCon=     0 RMS=1.50D-09 Max=3.11D-08 NDo=     1
 Linear equations converged to 5.756D-09 5.756D-08 after    16 iterations.
 Incorrect curvature in search direction -- initial direction reversed.
     Minimum is close to point  2 DX=  1.46D-02 DF= -9.55D-09 DXR=  1.44D-02 DFR=  2.07D-04 which will be used.
 Gradient too large for Newton-Raphson -- use scaled steepest descent instead.
 LinEq1:  Iter=  0 NonCon=     1 RMS=2.75D-04 Max=1.41D-02 NDo=     1
 LinEq1:  Iter=  1 NonCon=     1 RMS=1.01D-03 Max=5.72D-02 NDo=     1
 LinEq1:  Iter=  2 NonCon=     1 RMS=2.43D-03 Max=9.55D-02 NDo=     1
 LinEq1:  Iter=  3 NonCon=     1 RMS=1.69D-03 Max=3.54D-02 NDo=     1
 LinEq1:  Iter=  4 NonCon=     1 RMS=1.07D-03 Max=2.22D-02 NDo=     1
 LinEq1:  Iter=  5 NonCon=     1 RMS=1.05D-03 Max=2.43D-02 NDo=     1
 LinEq1:  Iter=  6 NonCon=     1 RMS=6.05D-04 Max=1.74D-02 NDo=     1
 LinEq1:  Iter=  7 NonCon=     1 RMS=1.99D-04 Max=3.32D-03 NDo=     1
 LinEq1:  Iter=  8 NonCon=     1 RMS=6.59D-05 Max=2.14D-03 NDo=     1
 LinEq1:  Iter=  9 NonCon=     1 RMS=2.76D-05 Max=9.35D-04 NDo=     1
 LinEq1:  Iter= 10 NonCon=     1 RMS=5.79D-06 Max=8.96D-05 NDo=     1
 LinEq1:  Iter= 11 NonCon=     1 RMS=1.81D-06 Max=3.44D-05 NDo=     1
 LinEq1:  Iter= 12 NonCon=     1 RMS=4.64D-07 Max=1.34D-05 NDo=     1
 LinEq1:  Iter= 13 NonCon=     1 RMS=1.95D-07 Max=5.74D-06 NDo=     1
 LinEq1:  Iter= 14 NonCon=     1 RMS=5.46D-08 Max=1.07D-06 NDo=     1
 LinEq1:  Iter= 15 NonCon=     1 RMS=1.56D-08 Max=3.48D-07 NDo=     1
 LinEq1:  Iter= 16 NonCon=     1 RMS=3.57D-09 Max=8.04D-08 NDo=     1
 LinEq1:  Iter= 17 NonCon=     0 RMS=7.53D-10 Max=1.28D-08 NDo=     1
 Linear equations converged to 5.756D-09 5.756D-08 after    17 iterations.
 Incorrect curvature in search direction -- initial direction reversed.
     Minimum is close to point  3 DX=  3.47D-02 DF= -7.22D-07 DXR=  2.26D-02 DFR=  1.25D-03 which will be used.
 Gradient too large for Newton-Raphson -- use scaled steepest descent instead.
     Minimum is close to point  2 DX= -1.66D-02 DF= -1.99D-06 DXR=  9.02D-02 DFR=  8.21D-03 which will be used.
 Gradient too large for Newton-Raphson -- use scaled steepest descent instead.
     Minimum is close to point  3 DX= -2.14D-02 DF= -3.21D-07 DXR=  5.65D-02 DFR=  3.23D-03 which will be used.
 Gradient too large for Newton-Raphson -- use scaled steepest descent instead.
     Accept linear search using points  1 and  2.
 LinEq1:  Iter=  0 NonCon=     1 RMS=6.82D-04 Max=2.83D-02 NDo=     1
 LinEq1:  Iter=  1 NonCon=     1 RMS=5.15D-03 Max=2.43D-01 NDo=     1
 LinEq1:  Iter=  2 NonCon=     1 RMS=1.71D-03 Max=5.91D-02 NDo=     1
 LinEq1:  Iter=  3 NonCon=     1 RMS=7.72D-04 Max=1.80D-02 NDo=     1
 LinEq1:  Iter=  4 NonCon=     1 RMS=6.89D-04 Max=1.39D-02 NDo=     1
 LinEq1:  Iter=  5 NonCon=     1 RMS=5.34D-04 Max=1.55D-02 NDo=     1
 LinEq1:  Iter=  6 NonCon=     1 RMS=1.94D-04 Max=4.81D-03 NDo=     1
 LinEq1:  Iter=  7 NonCon=     1 RMS=1.15D-04 Max=3.05D-03 NDo=     1
 LinEq1:  Iter=  8 NonCon=     1 RMS=7.68D-05 Max=2.39D-03 NDo=     1
 LinEq1:  Iter=  9 NonCon=     1 RMS=3.25D-05 Max=1.16D-03 NDo=     1
 LinEq1:  Iter= 10 NonCon=     1 RMS=6.89D-06 Max=1.26D-04 NDo=     1
 LinEq1:  Iter= 11 NonCon=     1 RMS=1.96D-06 Max=3.81D-05 NDo=     1
 LinEq1:  Iter= 12 NonCon=     1 RMS=6.72D-07 Max=2.48D-05 NDo=     1
 LinEq1:  Iter= 13 NonCon=     1 RMS=2.46D-07 Max=6.84D-06 NDo=     1
 LinEq1:  Iter= 14 NonCon=     1 RMS=5.27D-08 Max=1.34D-06 NDo=     1
 LinEq1:  Iter= 15 NonCon=     1 RMS=1.43D-08 Max=2.88D-07 NDo=     1
 LinEq1:  Iter= 16 NonCon=     1 RMS=3.72D-09 Max=6.71D-08 NDo=     1
 LinEq1:  Iter= 17 NonCon=     0 RMS=7.19D-10 Max=1.21D-08 NDo=     1
 Linear equations converged to 5.756D-09 5.756D-08 after    17 iterations.
 Incorrect curvature in search direction -- initial direction reversed.
 Gradient too large for Newton-Raphson -- use scaled steepest descent instead.
     Accept linear search using points  1 and  2.
 Gradient too large for Newton-Raphson -- use scaled steepest descent instead.
 Gradient too large for Newton-Raphson -- use scaled steepest descent instead.
     Minimum is close to point  3 DX= -1.45D-02 DF= -9.02D-07 DXR=  7.82D-02 DFR=  6.15D-03 which will be used.
 LinEq1:  Iter=  0 NonCon=     1 RMS=1.51D-03 Max=7.93D-02 NDo=     1
 LinEq1:  Iter=  1 NonCon=     1 RMS=1.06D-02 Max=4.92D-01 NDo=     1
 LinEq1:  Iter=  2 NonCon=     1 RMS=9.16D-04 Max=4.20D-02 NDo=     1
 LinEq1:  Iter=  3 NonCon=     1 RMS=8.07D-04 Max=2.57D-02 NDo=     1
 LinEq1:  Iter=  4 NonCon=     1 RMS=3.63D-04 Max=1.11D-02 NDo=     1
 LinEq1:  Iter=  5 NonCon=     1 RMS=1.07D-04 Max=1.81D-03 NDo=     1
 LinEq1:  Iter=  6 NonCon=     1 RMS=5.24D-05 Max=1.40D-03 NDo=     1
 LinEq1:  Iter=  7 NonCon=     1 RMS=4.40D-05 Max=9.91D-04 NDo=     1
 LinEq1:  Iter=  8 NonCon=     1 RMS=2.64D-05 Max=6.35D-04 NDo=     1
 LinEq1:  Iter=  9 NonCon=     1 RMS=7.57D-06 Max=1.37D-04 NDo=     1
 LinEq1:  Iter= 10 NonCon=     1 RMS=2.15D-06 Max=4.25D-05 NDo=     1
 LinEq1:  Iter= 11 NonCon=     1 RMS=7.24D-07 Max=2.69D-05 NDo=     1
 LinEq1:  Iter= 12 NonCon=     1 RMS=2.59D-07 Max=5.38D-06 NDo=     1
 LinEq1:  Iter= 13 NonCon=     1 RMS=6.08D-08 Max=8.36D-07 NDo=     1
 LinEq1:  Iter= 14 NonCon=     1 RMS=1.55D-08 Max=2.14D-07 NDo=     1
 LinEq1:  Iter= 15 NonCon=     0 RMS=3.46D-09 Max=5.49D-08 NDo=     1
 Linear equations converged to 5.756D-09 5.756D-08 after    15 iterations.
 Incorrect curvature in search direction -- initial direction reversed.
 Gradient too large for Newton-Raphson -- use scaled steepest descent instead.
 Gradient too large for Newton-Raphson -- use scaled steepest descent instead.
 Gradient too large for Newton-Raphson -- use scaled steepest descent instead.
     Minimum is close to point  3 DX= -1.78D-03 DF= -5.95D-09 DXR=  8.97D-03 DFR=  8.04D-05 which will be used.
 LinEq1:  Iter=  0 NonCon=     1 RMS=9.50D-04 Max=4.98D-02 NDo=     1
 LinEq1:  Iter=  1 NonCon=     1 RMS=6.43D-03 Max=2.86D-01 NDo=     1
 LinEq1:  Iter=  2 NonCon=     1 RMS=1.13D-03 Max=2.34D-02 NDo=     1
 LinEq1:  Iter=  3 NonCon=     1 RMS=1.16D-03 Max=4.65D-02 NDo=     1
 LinEq1:  Iter=  4 NonCon=     1 RMS=3.43D-04 Max=1.18D-02 NDo=     1
 LinEq1:  Iter=  5 NonCon=     1 RMS=2.82D-04 Max=7.31D-03 NDo=     1
 LinEq1:  Iter=  6 NonCon=     1 RMS=1.41D-04 Max=1.81D-03 NDo=     1
 LinEq1:  Iter=  7 NonCon=     1 RMS=6.04D-05 Max=1.36D-03 NDo=     1
 LinEq1:  Iter=  8 NonCon=     1 RMS=1.68D-05 Max=5.80D-04 NDo=     1
 LinEq1:  Iter=  9 NonCon=     1 RMS=5.49D-06 Max=1.91D-04 NDo=     1
 LinEq1:  Iter= 10 NonCon=     1 RMS=1.47D-06 Max=3.53D-05 NDo=     1
 LinEq1:  Iter= 11 NonCon=     1 RMS=3.97D-07 Max=5.94D-06 NDo=     1
 LinEq1:  Iter= 12 NonCon=     1 RMS=9.95D-08 Max=4.16D-06 NDo=     1
 LinEq1:  Iter= 13 NonCon=     1 RMS=3.57D-08 Max=1.12D-06 NDo=     1
 LinEq1:  Iter= 14 NonCon=     1 RMS=9.39D-09 Max=1.76D-07 NDo=     1
 LinEq1:  Iter= 15 NonCon=     1 RMS=2.92D-09 Max=6.36D-08 NDo=     1
 LinEq1:  Iter= 16 NonCon=     0 RMS=5.34D-10 Max=9.80D-09 NDo=     1
 Linear equations converged to 5.756D-09 5.756D-08 after    16 iterations.
 LinEq1:  Iter=  0 NonCon=     1 RMS=1.63D-03 Max=9.26D-02 NDo=     1
 LinEq1:  Iter=  1 NonCon=     1 RMS=3.80D-03 Max=1.80D-01 NDo=     1
 LinEq1:  Iter=  2 NonCon=     1 RMS=6.54D-04 Max=1.51D-02 NDo=     1
 LinEq1:  Iter=  3 NonCon=     1 RMS=7.72D-04 Max=2.71D-02 NDo=     1
 LinEq1:  Iter=  4 NonCon=     1 RMS=2.65D-04 Max=7.89D-03 NDo=     1
 LinEq1:  Iter=  5 NonCon=     1 RMS=2.36D-04 Max=6.28D-03 NDo=     1
 LinEq1:  Iter=  6 NonCon=     1 RMS=9.92D-05 Max=2.04D-03 NDo=     1
 LinEq1:  Iter=  7 NonCon=     1 RMS=4.24D-05 Max=8.53D-04 NDo=     1
 LinEq1:  Iter=  8 NonCon=     1 RMS=8.58D-06 Max=2.03D-04 NDo=     1
 LinEq1:  Iter=  9 NonCon=     1 RMS=1.70D-06 Max=3.58D-05 NDo=     1
 LinEq1:  Iter= 10 NonCon=     1 RMS=5.13D-07 Max=1.64D-05 NDo=     1
 LinEq1:  Iter= 11 NonCon=     1 RMS=2.35D-07 Max=5.05D-06 NDo=     1
 LinEq1:  Iter= 12 NonCon=     1 RMS=4.85D-08 Max=7.45D-07 NDo=     1
 LinEq1:  Iter= 13 NonCon=     1 RMS=8.54D-09 Max=1.38D-07 NDo=     1
 LinEq1:  Iter= 14 NonCon=     1 RMS=2.55D-09 Max=8.73D-08 NDo=     1
 LinEq1:  Iter= 15 NonCon=     0 RMS=1.05D-09 Max=3.44D-08 NDo=     1
 Linear equations converged to 5.756D-09 5.756D-08 after    15 iterations.
     Minimum is close to point  2 DX= -6.49D-02 DF= -9.91D-07 DXR=  6.94D-02 DFR=  4.84D-03 which will be used.
 LinEq1:  Iter=  0 NonCon=     1 RMS=2.05D-03 Max=1.18D-01 NDo=     1
 LinEq1:  Iter=  1 NonCon=     1 RMS=7.91D-04 Max=3.18D-02 NDo=     1
 LinEq1:  Iter=  2 NonCon=     1 RMS=4.50D-04 Max=1.15D-02 NDo=     1
 LinEq1:  Iter=  3 NonCon=     1 RMS=3.47D-04 Max=1.15D-02 NDo=     1
 LinEq1:  Iter=  4 NonCon=     1 RMS=1.07D-04 Max=2.40D-03 NDo=     1
 LinEq1:  Iter=  5 NonCon=     1 RMS=1.13D-04 Max=3.24D-03 NDo=     1
 LinEq1:  Iter=  6 NonCon=     1 RMS=3.17D-05 Max=8.62D-04 NDo=     1
 LinEq1:  Iter=  7 NonCon=     1 RMS=1.50D-05 Max=5.00D-04 NDo=     1
 LinEq1:  Iter=  8 NonCon=     1 RMS=5.82D-06 Max=1.17D-04 NDo=     1
 LinEq1:  Iter=  9 NonCon=     1 RMS=1.35D-06 Max=2.47D-05 NDo=     1
 LinEq1:  Iter= 10 NonCon=     1 RMS=3.26D-07 Max=6.77D-06 NDo=     1
 LinEq1:  Iter= 11 NonCon=     1 RMS=7.22D-08 Max=2.21D-06 NDo=     1
 LinEq1:  Iter= 12 NonCon=     1 RMS=2.94D-08 Max=9.99D-07 NDo=     1
 LinEq1:  Iter= 13 NonCon=     1 RMS=7.82D-09 Max=1.67D-07 NDo=     1
 LinEq1:  Iter= 14 NonCon=     0 RMS=2.06D-09 Max=4.26D-08 NDo=     1
 Linear equations converged to 5.756D-09 5.756D-08 after    14 iterations.
     Minimum is close to point  2 DX=  9.45D-02 DF= -2.24D-07 DXR=  8.64D-02 DFR=  7.52D-03 which will be used.
 LinEq1:  Iter=  0 NonCon=     1 RMS=5.31D-05 Max=3.00D-03 NDo=     1
 LinEq1:  Iter=  1 NonCon=     1 RMS=1.77D-04 Max=8.64D-03 NDo=     1
 LinEq1:  Iter=  2 NonCon=     1 RMS=2.22D-05 Max=9.49D-04 NDo=     1
 LinEq1:  Iter=  3 NonCon=     1 RMS=1.41D-05 Max=3.69D-04 NDo=     1
 LinEq1:  Iter=  4 NonCon=     1 RMS=5.25D-06 Max=9.45D-05 NDo=     1
 LinEq1:  Iter=  5 NonCon=     1 RMS=2.44D-06 Max=5.86D-05 NDo=     1
 LinEq1:  Iter=  6 NonCon=     1 RMS=2.23D-06 Max=8.06D-05 NDo=     1
 LinEq1:  Iter=  7 NonCon=     1 RMS=8.58D-07 Max=1.84D-05 NDo=     1
 LinEq1:  Iter=  8 NonCon=     1 RMS=3.30D-07 Max=9.02D-06 NDo=     1
 LinEq1:  Iter=  9 NonCon=     1 RMS=6.23D-08 Max=1.14D-06 NDo=     1
 LinEq1:  Iter= 10 NonCon=     1 RMS=2.19D-08 Max=8.53D-07 NDo=     1
 LinEq1:  Iter= 11 NonCon=     1 RMS=9.31D-09 Max=2.71D-07 NDo=     1
 LinEq1:  Iter= 12 NonCon=     1 RMS=1.55D-09 Max=2.53D-08 NDo=     1
 LinEq1:  Iter= 13 NonCon=     0 RMS=4.73D-10 Max=1.43D-08 NDo=     1
 Linear equations converged to 2.152D-09 2.152D-08 after    13 iterations.
     Minimum is close to point  2 DX=  1.43D-02 DF= -8.23D-11 DXR=  1.41D-02 DFR=  1.98D-04 which will be used.
 LinEq1:  Iter=  0 NonCon=     1 RMS=5.71D-06 Max=3.28D-04 NDo=     1
 LinEq1:  Iter=  1 NonCon=     1 RMS=1.93D-06 Max=7.28D-05 NDo=     1
 LinEq1:  Iter=  2 NonCon=     1 RMS=1.09D-06 Max=2.52D-05 NDo=     1
 LinEq1:  Iter=  3 NonCon=     1 RMS=8.97D-07 Max=2.67D-05 NDo=     1
 LinEq1:  Iter=  4 NonCon=     1 RMS=2.88D-07 Max=5.43D-06 NDo=     1
 LinEq1:  Iter=  5 NonCon=     1 RMS=2.93D-07 Max=8.08D-06 NDo=     1
 LinEq1:  Iter=  6 NonCon=     1 RMS=9.69D-08 Max=2.23D-06 NDo=     1
 LinEq1:  Iter=  7 NonCon=     1 RMS=4.19D-08 Max=1.70D-06 NDo=     1
 LinEq1:  Iter=  8 NonCon=     1 RMS=1.55D-08 Max=3.89D-07 NDo=     1
 LinEq1:  Iter=  9 NonCon=     1 RMS=3.88D-09 Max=7.60D-08 NDo=     1
 LinEq1:  Iter= 10 NonCon=     1 RMS=9.93D-10 Max=2.14D-08 NDo=     1
 LinEq1:  Iter= 11 NonCon=     1 RMS=2.80D-10 Max=1.10D-08 NDo=     1
 LinEq1:  Iter= 12 NonCon=     1 RMS=1.01D-10 Max=2.77D-09 NDo=     1
 LinEq1:  Iter= 13 NonCon=     0 RMS=2.55D-11 Max=5.28D-10 NDo=     1
 Linear equations converged to 2.211D-10 2.211D-09 after    13 iterations.
 SCF Done:  E(UB3LYP) =  -1792.49839767     a.u. after   39 cycles
            Convg  =    0.8516D-08                   317 Fock formations.
              S**2 =  0.7629                  -V/T =  2.0006
 <Sx>= 0.0000 <Sy>= 0.0000 <Sz>= 0.5000 <S**2>= 0.7629 S= 0.5064
 <L.S>= 0.000000000000E+00
 Annihilation of the first spin contaminant:
 S**2 before annihilation     0.7629,   after     0.7500

 **********************************************************************

            Population analysis using the SCF density.

 **********************************************************************

 Orbital symmetries:
 Alpha Orbitals:
       Occupied  (A') (A') (A') (A") (A') (A') (A') (A') (A') (A")
                 (A') (A') (A') (A') (A") (A') (A") (A') (A') (A')
                 (A') (A") (A') (A")
       Virtual   (A') (A') (A') (A') (A") (A') (A') (A') (A') (A")
                 (A') (A") (A') (A') (A') (A") (A') (A') (A") (A')
                 (A") (A') (A') (A") (A') (A') (A') (A') (A') (A")
                 (A") (A") (A') (A') (A") (A') (A') (A') (A") (A')
                 (A') (A") (A") (A') (A') (A') (A") (A') (A') (A")
                 (A') (A') (A") (A') (A") (A') (A") (A') (A') (A")
                 (A') (A') (A') (A") (A') (A') (A') (A') (A') (A')
 Beta  Orbitals:
       Occupied  (A') (A') (A') (A') (A") (A') (A') (A') (A') (A')
                 (A") (A') (A') (A') (A") (A') (A") (A') (A') (A")
                 (A') (A") (A')
       Virtual   (A') (A') (A') (A') (A') (A") (A') (A') (A') (A')
                 (A") (A') (A") (A') (A') (A') (A") (A') (A') (A")
                 (A') (A") (A') (A') (A") (A') (A') (A') (A') (A')
                 (A") (A") (A") (A") (A') (A') (A') (A') (A') (A")
                 (A') (A') (A") (A') (A") (A") (A') (A') (A') (A")
                 (A') (A') (A') (A") (A') (A") (A') (A") (A') (A')
                 (A") (A') (A') (A') (A") (A') (A') (A') (A') (A')
                 (A')
 The electronic state is 2-A'.
 Alpha  occ. eigenvalues -- -323.45716 -39.25209 -34.48509 -34.46745 -34.46664
 Alpha  occ. eigenvalues --  -19.56446 -19.56321  -4.78771  -3.30941  -3.27276
 Alpha  occ. eigenvalues --   -3.27122  -1.45539  -1.44137  -1.03434  -1.00985
 Alpha  occ. eigenvalues --   -0.87432  -0.79504  -0.77344  -0.77158  -0.76149
 Alpha  occ. eigenvalues --   -0.75813  -0.75759  -0.75679  -0.73487
 Alpha virt. eigenvalues --   -0.50563  -0.32046  -0.30668  -0.24011  -0.20857
 Alpha virt. eigenvalues --   -0.18785  -0.04412  -0.02591   0.04359   0.12153
 Alpha virt. eigenvalues --    0.28117   0.30937   0.34307   0.37174   0.43372
 Alpha virt. eigenvalues --    0.52887   0.68292   0.74626   0.82954   0.85283
 Alpha virt. eigenvalues --    0.98500   0.98570   0.99314   1.01935   1.20577
 Alpha virt. eigenvalues --    1.27129   1.54621   1.55625   1.72485   1.73669
 Alpha virt. eigenvalues --    2.27984   2.28706   2.35885   2.36036   2.37502
 Alpha virt. eigenvalues --    2.53184   2.69488   2.71789   2.73394   3.03752
 Alpha virt. eigenvalues --    3.04074   3.47862   3.48385   3.48426   3.48639
 Alpha virt. eigenvalues --    3.48956   3.48978   3.49157   4.27235   4.30033
 Alpha virt. eigenvalues --    4.35389   4.43984   4.64917   4.67206   6.70117
 Alpha virt. eigenvalues --    6.70235   6.71979   6.76056   6.80247   8.79718
 Alpha virt. eigenvalues --    8.85264   9.08135  31.48128  42.25757  42.29408
 Alpha virt. eigenvalues --   42.44257  49.26850  49.29637 183.54851 978.80427
  Beta  occ. eigenvalues -- -323.45714 -39.23999 -34.46857 -34.46072 -34.46046
  Beta  occ. eigenvalues --  -19.56315 -19.54936  -4.76288  -3.26325  -3.25621
  Beta  occ. eigenvalues --   -3.25497  -1.45243  -1.40610  -1.03332  -1.00022
  Beta  occ. eigenvalues --   -0.85174  -0.78930  -0.76193  -0.74692  -0.74366
  Beta  occ. eigenvalues --   -0.74352  -0.72993  -0.65635
  Beta virt. eigenvalues --   -0.62954  -0.49735  -0.31969  -0.30163  -0.23963
  Beta virt. eigenvalues --   -0.20594  -0.18635  -0.04360  -0.02241   0.04470
  Beta virt. eigenvalues --    0.12309   0.28781   0.31048   0.37886   0.38646
  Beta virt. eigenvalues --    0.43506   0.53572   0.68618   0.76468   0.83625
  Beta virt. eigenvalues --    0.85783   0.99154   0.99385   1.02062   1.02292
  Beta virt. eigenvalues --    1.20969   1.28266   1.54947   1.55765   1.72559
  Beta virt. eigenvalues --    1.73567   2.28807   2.32527   2.37871   2.40120
  Beta virt. eigenvalues --    2.40412   2.53766   2.69787   2.73021   2.74153
  Beta virt. eigenvalues --    3.04118   3.05902   3.48559   3.48616   3.49812
  Beta virt. eigenvalues --    3.49982   3.49992   3.51027   3.51569   4.30146
  Beta virt. eigenvalues --    4.33334   4.36626   4.44608   4.66151   4.67324
  Beta virt. eigenvalues --    6.71248   6.71381   6.72727   6.76844   6.85067
  Beta virt. eigenvalues --    8.80868   8.86247   9.10855  31.49739  42.26665
  Beta virt. eigenvalues --   42.30191  42.46446  49.28246  49.29772 183.55459
  Beta virt. eigenvalues --  978.80548
          Condensed to atoms (all electrons):
               1          2          3          4          5          6
     1  Cu  27.629392   0.005232   0.112462  -0.005634  -0.005529  -0.000274
     2  O    0.005232   8.063910  -0.000003  -0.000005  -0.000007   0.250475
     3  O    0.112462  -0.000003   8.331641   0.244642   0.246123   0.000003
     4  H   -0.005634  -0.000005   0.244642   0.192858  -0.009041   0.000000
     5  H   -0.005529  -0.000007   0.246123  -0.009041   0.201221   0.000000
     6  H   -0.000274   0.250475   0.000003   0.000000   0.000000   0.213152
     7  H   -0.000274   0.250475   0.000003   0.000000   0.000000  -0.011313
               7
     1  Cu  -0.000274
     2  O    0.250475
     3  O    0.000003
     4  H    0.000000
     5  H    0.000000
     6  H   -0.011313
     7  H    0.213152
          Atomic-Atomic Spin Densities.
               1          2          3          4          5          6
     1  Cu   0.443368  -0.000514  -0.009135   0.000090   0.000238   0.000021
     2  O   -0.000514   0.563966   0.000001   0.000000   0.000010  -0.006401
     3  O   -0.009135   0.000001   0.056037   0.000189   0.000241   0.000000
     4  H    0.000090   0.000000   0.000189  -0.000959  -0.000060   0.000000
     5  H    0.000238   0.000010   0.000241  -0.000060  -0.001050   0.000000
     6  H    0.000021  -0.006401   0.000000   0.000000   0.000000  -0.009585
     7  H    0.000021  -0.006401   0.000000   0.000000   0.000000   0.000602
               7
     1  Cu   0.000021
     2  O   -0.006401
     3  O    0.000000
     4  H    0.000000
     5  H    0.000000
     6  H    0.000602
     7  H   -0.009585
 Mulliken charges and spin densities:
               1          2
     1  Cu   1.264625   0.434090
     2  O   -0.570077   0.550663
     3  O   -0.934871   0.047334
     4  H    0.577179  -0.000740
     5  H    0.567231  -0.000622
     6  H    0.547956  -0.015362
     7  H    0.547956  -0.015362
 Sum of Mulliken charges =   2.00000   1.00000
 Mulliken charges and spin densities with hydrogens summed into heavy atoms:
               1          2
     1  Cu   1.264625   0.434090
     2  O    0.525836   0.519938
     3  O    0.209539   0.045972
 Electronic spatial extent (au):  <R**2>=            609.9378
 Charge=              2.0000 electrons
 Dipole moment (field-independent basis, Debye):
    X=             -2.0586    Y=             -3.2994    Z=              0.0000  Tot=              3.8889
 Quadrupole moment (field-independent basis, Debye-Ang):
   XX=              4.4002   YY=             13.7387   ZZ=            -16.6660
   XY=             20.4831   XZ=              0.0000   YZ=              0.0000
 Traceless Quadrupole moment (field-independent basis, Debye-Ang):
   XX=              3.9093   YY=             13.2477   ZZ=            -17.1570
   XY=             20.4831   XZ=              0.0000   YZ=              0.0000
 Octapole moment (field-independent basis, Debye-Ang**2):
  XXX=              1.1467  YYY=            -53.0817  ZZZ=              0.0000  XYY=            -46.5421
  XXY=            -25.2793  XXZ=              0.0000  XZZ=            -11.0739  YZZ=             -7.3171
  YYZ=              0.0000  XYZ=              0.0000
 Hexadecapole moment (field-independent basis, Debye-Ang**3):
 XXXX=           -144.8121 YYYY=            -45.4580 ZZZZ=            -11.2718 XXXY=             -6.0878
 XXXZ=              0.0000 YYYX=             78.5430 YYYZ=              0.0000 ZZZX=              0.0000
 ZZZY=              0.0000 XXYY=             50.4292 XXZZ=            -32.2408 YYZZ=            -15.9089
 XXYZ=              0.0000 YYXZ=              0.0000 ZZXY=            -11.2963
 N-N= 1.455882044352D+02 E-N=-4.556502312835D+03  KE= 1.791473863834D+03
 Symmetry A'   KE= 1.561502152863D+03
 Symmetry A"   KE= 2.299717109706D+02
                          Isotropic Fermi Contact Couplings
        Atom                 a.u.       MegaHertz       Gauss      10(-4) cm-1
     1  Cu(63)            -0.13146    -155.92625     -55.63836     -52.01140
     2  O(17)              0.06238     -37.81271     -13.49252     -12.61296
     3  O(17)              0.02941     -17.82819      -6.36154      -5.94684
     4  H(1)              -0.00033      -1.49190      -0.53235      -0.49764
     5  H(1)              -0.00036      -1.60890      -0.57410      -0.53667
     6  H(1)              -0.00824     -36.83164     -13.14245     -12.28571
     7  H(1)              -0.00824     -36.83164     -13.14245     -12.28571
 --------------------------------------------------------
       Center         ----  Spin Dipole Couplings  ----
                      3XX-RR        3YY-RR        3ZZ-RR
 --------------------------------------------------------
     1   Atom        2.175952     -1.236585     -0.939367
     2   Atom        1.122739     -0.046808     -1.075931
     3   Atom        0.201420     -0.098668     -0.102752
     4   Atom        0.006995      0.004093     -0.011088
     5   Atom        0.005421      0.006052     -0.011473
     6   Atom       -0.035858     -0.042761      0.078620
     7   Atom       -0.035858     -0.042761      0.078620
 --------------------------------------------------------
                        XY            XZ            YZ
 --------------------------------------------------------
     1   Atom       -0.289269      0.000000      0.000000
     2   Atom       -1.509733      0.000000      0.000000
     3   Atom       -0.022662      0.000000      0.000000
     4   Atom        0.007829      0.000000      0.000000
     5   Atom       -0.006373      0.000000      0.000000
     6   Atom       -0.011257     -0.026741     -0.043273
     7   Atom       -0.011257      0.026741      0.043273
 --------------------------------------------------------


 ---------------------------------------------------------------------------------
              Anisotropic Spin Dipole Couplings in Principal Axis System
 ---------------------------------------------------------------------------------

       Atom             a.u.   MegaHertz   Gauss  10(-4) cm-1        Axes

              Baa    -1.2609  -178.525   -63.702   -59.549  0.0839  0.9965  0.0000
     1 Cu(63) Bbb    -0.9394  -132.997   -47.457   -44.363  0.0000  0.0000  1.0000
              Bcc     2.2003   311.522   111.159   103.913  0.9965 -0.0839  0.0000
 
              Baa    -1.0811    78.225    27.913    26.093  0.5652  0.8250  0.0000
     2 O(17)  Bbb    -1.0759    77.854    27.780    25.969  0.0000  0.0000  1.0000
              Bcc     2.1570  -156.079   -55.693   -52.062  0.8250 -0.5652  0.0000
 
              Baa    -0.1028     7.435     2.653     2.480  0.0000  0.0000  1.0000
     3 O(17)  Bbb    -0.1004     7.263     2.592     2.423  0.0749  0.9972  0.0000
              Bcc     0.2031   -14.698    -5.245    -4.903  0.9972 -0.0749  0.0000
 
              Baa    -0.0111    -5.916    -2.111    -1.973  0.0000  0.0000  1.0000
     4 H(1)   Bbb    -0.0024    -1.290    -0.460    -0.430 -0.6394  0.7689  0.0000
              Bcc     0.0135     7.206     2.571     2.404  0.7689  0.6394  0.0000
 
              Baa    -0.0115    -6.121    -2.184    -2.042  0.0000  0.0000  1.0000
     5 H(1)   Bbb    -0.0006    -0.344    -0.123    -0.115  0.7244  0.6894  0.0000
              Bcc     0.0121     6.465     2.307     2.157 -0.6894  0.7244  0.0000
 
              Baa    -0.0686   -36.598   -13.059   -12.208  0.5346  0.7796  0.3263
     6 H(1)   Bbb    -0.0276   -14.736    -5.258    -4.915  0.8283 -0.5599 -0.0196
              Bcc     0.0962    51.333    18.317    17.123 -0.1674 -0.2807  0.9451
 
              Baa    -0.0686   -36.598   -13.059   -12.208  0.5346  0.7796 -0.3263
     7 H(1)   Bbb    -0.0276   -14.736    -5.258    -4.915  0.8283 -0.5599  0.0196
              Bcc     0.0962    51.333    18.317    17.123  0.1674  0.2807  0.9451
 

 ---------------------------------------------------------------------------------

 Calling FoFJK, ICntrl=      2127 FMM=F ISym2X=1 I1Cent= 0 IOpClX= 1 NMat=1 NMatS=1 NMatT=0.
 ***** Axes restored to original set *****
 -------------------------------------------------------------------
 Center     Atomic                   Forces (Hartrees/Bohr)
 Number     Number              X              Y              Z
 -------------------------------------------------------------------
      1       29          -0.006442168    0.000000011   -0.001870768
      2        8           0.004439030    0.000000000   -0.072929037
      3        8          -0.073982357   -0.000000010    0.037621610
      4        1           0.040529537    0.000000000   -0.019131241
      5        1           0.040004239   -0.000000001   -0.021574825
      6        1          -0.002274140    0.007011063    0.038942130
      7        1          -0.002274140   -0.007011063    0.038942130
 -------------------------------------------------------------------
 Cartesian Forces:  Max     0.073982357 RMS     0.030463263

 GradGradGradGradGradGradGradGradGradGradGradGradGradGradGradGradGradGrad
 Berny optimization.
 FormGI is forming the generalized inverse of G from B-inverse, IUseBI=4.
 Internal  Forces:  Max     0.051355559 RMS     0.020192462
 Search for a local minimum.
 Step number   1 out of a maximum of  100 on scan point     1 out of    26
 All quantities printed in internal units (Hartrees-Bohrs-Radians)
 Mixed Optimization -- RFO/linear search
 Second derivative matrix not updated -- first step.
 The second derivative matrix:
                          R1        R2        R3        R4        R5
           R1           0.00858
           R2           0.00000   0.19001
           R3           0.00000   0.00000   0.57681
           R4           0.00000   0.00000   0.00000   0.57681
           R5           0.00000   0.00000   0.00000   0.00000   0.57681
           R6           0.00000   0.00000   0.00000   0.00000   0.00000
           A1           0.00000   0.00000   0.00000   0.00000   0.00000
           A2           0.00000   0.00000   0.00000   0.00000   0.00000
           A3           0.00000   0.00000   0.00000   0.00000   0.00000
           A4           0.00000   0.00000   0.00000   0.00000   0.00000
           A5           0.00000   0.00000   0.00000   0.00000   0.00000
           A6           0.00000   0.00000   0.00000   0.00000   0.00000
           A7           0.00000   0.00000   0.00000   0.00000   0.00000
           D1           0.00000   0.00000   0.00000   0.00000   0.00000
           D2           0.00000   0.00000   0.00000   0.00000   0.00000
           D3           0.00000   0.00000   0.00000   0.00000   0.00000
           D4           0.00000   0.00000   0.00000   0.00000   0.00000
           D5           0.00000   0.00000   0.00000   0.00000   0.00000
           D6           0.00000   0.00000   0.00000   0.00000   0.00000
                          R6        A1        A2        A3        A4
           R6           0.57681
           A1           0.00000   0.25000
           A2           0.00000   0.00000   0.16000
           A3           0.00000   0.00000   0.00000   0.16000
           A4           0.00000   0.00000   0.00000   0.00000   0.16000
           A5           0.00000   0.00000   0.00000   0.00000   0.00000
           A6           0.00000   0.00000   0.00000   0.00000   0.00000
           A7           0.00000   0.00000   0.00000   0.00000   0.00000
           D1           0.00000   0.00000   0.00000   0.00000   0.00000
           D2           0.00000   0.00000   0.00000   0.00000   0.00000
           D3           0.00000   0.00000   0.00000   0.00000   0.00000
           D4           0.00000   0.00000   0.00000   0.00000   0.00000
           D5           0.00000   0.00000   0.00000   0.00000   0.00000
           D6           0.00000   0.00000   0.00000   0.00000   0.00000
                          A5        A6        A7        D1        D2
           A5           0.16000
           A6           0.00000   0.16000
           A7           0.00000   0.00000   0.16000
           D1           0.00000   0.00000   0.00000   0.00230
           D2           0.00000   0.00000   0.00000   0.00000   0.00230
           D3           0.00000   0.00000   0.00000   0.00000   0.00000
           D4           0.00000   0.00000   0.00000   0.00000   0.00000
           D5           0.00000   0.00000   0.00000   0.00000   0.00000
           D6           0.00000   0.00000   0.00000   0.00000   0.00000
                          D3        D4        D5        D6
           D3           0.03612
           D4           0.00000   0.03612
           D5           0.00000   0.00000   0.01690
           D6           0.00000   0.00000   0.00000   0.01690
 ITU=  0
     Eigenvalues ---    0.00230   0.01424   0.02039   0.03612   0.16000
     Eigenvalues ---    0.16000   0.16000   0.16000   0.19001   0.57681
     Eigenvalues ---    0.57681   0.57681   0.576811000.000001000.00000
     Eigenvalues --- 1000.000001000.000001000.000001000.00000
 RFO step:  Lambda=-3.54764949D-02 EMin= 2.30000000D-03
 Linear search not attempted -- first point.
 Maximum step size (   0.300) exceeded in Quadratic search.
    -- Step size scaled by   0.719
 Iteration  1 RMS(Cart)=  0.06969300 RMS(Int)=  0.00336945
 Iteration  2 RMS(Cart)=  0.00324023 RMS(Int)=  0.00059605
 Iteration  3 RMS(Cart)=  0.00000417 RMS(Int)=  0.00059603
 Iteration  4 RMS(Cart)=  0.00000000 RMS(Int)=  0.00059603
 Iteration  1 RMS(Cart)=  0.00000000 RMS(Int)=  0.00000000
 ClnCor:  largest displacement from symmetrization is 2.41D-05 for atom     7.
 Variable       Old X    -DE/DX   Delta X   Delta X   Delta X     New X
                                 (Linear)    (Quad)   (Total)
    R1        7.34197   0.00498   0.00000   0.00000   0.00000   7.34197
    R2        3.56225   0.00720   0.00000   0.02295   0.02295   3.58520
    R3        1.79524   0.01959   0.00000   0.02300   0.02300   1.81824
    R4        1.79524   0.01959   0.00000   0.02300   0.02300   1.81824
    R5        1.79524   0.01515   0.00000   0.01778   0.01778   1.81302
    R6        1.79524   0.01261   0.00000   0.01480   0.01480   1.81004
    A1        2.00713   0.00297   0.00000   0.00000   0.00000   2.00713
    A2        1.91063   0.02058   0.00000   0.07565   0.07554   1.98618
    A3        1.91063   0.02058   0.00000   0.07565   0.07554   1.98618
    A4        2.46192  -0.04115   0.00000  -0.15131  -0.15139   2.31053
    A5        1.91063   0.02433   0.00000   0.08945   0.08945   2.00008
    A6        1.91063   0.02703   0.00000   0.09937   0.09937   2.01001
    A7        2.46192  -0.05136   0.00000  -0.18882  -0.18882   2.27310
    D1        1.57080   0.00069   0.00000   0.01001   0.01160   1.58240
    D2       -1.57080  -0.00069   0.00000  -0.01001  -0.01160  -1.58240
    D3        3.14159   0.00000   0.00000   0.00000   0.00000   3.14159
    D4        0.00000   0.00000   0.00000   0.00000   0.00000   0.00000
    D5        3.14159  -0.00208   0.00000  -0.03002  -0.02874   3.11286
    D6        3.14159   0.00000   0.00000   0.00000   0.00000   3.14159
         Item               Value     Threshold  Converged?
 Maximum Force            0.051356     0.000450     NO 
 RMS     Force            0.021301     0.000300     NO 
 Maximum Displacement     0.160931     0.001800     NO 
 RMS     Displacement     0.070286     0.001200     NO 
 Predicted change in Energy=-1.795029D-02
 GradGradGradGradGradGradGradGradGradGradGradGradGradGradGradGradGradGrad

                          Input orientation:                          
 ---------------------------------------------------------------------
 Center     Atomic      Atomic             Coordinates (Angstroms)
 Number     Number       Type             X           Y           Z
 ---------------------------------------------------------------------
      1         29           0       -0.031256    0.000000   -0.002612
      2          8           0       -0.010578    0.000000    3.882536
      3          8           0        1.683903    0.000000   -0.813546
      4          1           0        1.672036    0.000000   -1.772881
      5          1           0        2.422670    0.000000   -0.203900
      6          1           0       -0.018722    0.880293    4.270858
      7          1           0       -0.018722   -0.880293    4.270858
 ---------------------------------------------------------------------
                    Distance matrix (angstroms):
                    1          2          3          4          5
     1  Cu   0.000000
     2  O    3.885203   0.000000
     3  O    1.897205   4.992439   0.000000
     4  H    2.456635   5.900418   0.959409   0.000000
     5  H    2.462168   4.756012   0.957833   1.739297   0.000000
     6  H    4.363212   0.962173   5.433692   6.337220   5.172888
     7  H    4.363212   0.962173   5.433692   6.337220   5.172888
                    6          7
     6  H    0.000000
     7  H    1.760586   0.000000
 Stoichiometry    CuH4O2(2+,2)
 Framework group  CS[SG(CuH2O2),X(H2)]
 Deg. of freedom    10
 Full point group                 CS      NOp   2
 Largest Abelian subgroup         CS      NOp   2
 Largest concise Abelian subgroup CS      NOp   2
                         Standard orientation:                         
 ---------------------------------------------------------------------
 Center     Atomic      Atomic             Coordinates (Angstroms)
 Number     Number       Type             X           Y           Z
 ---------------------------------------------------------------------
      1         29           0        0.000000    0.735261    0.000000
      2          8           0       -1.930626   -2.636309    0.000000
      3          8           0        1.890561    0.576629    0.000000
      4          1           0        2.361429    1.412541    0.000000
      5          1           0        2.223943   -0.321313    0.000000
      6          1           0       -2.132427   -2.968178    0.880293
      7          1           0       -2.132427   -2.968178   -0.880293
 ---------------------------------------------------------------------
 Rotational constants (GHZ):     12.8910783      1.8708395      1.6504071
 Standard basis: 6-311G(d) (5D, 7F)
 There are    74 symmetry adapted cartesian basis functions of A'  symmetry.
 There are    28 symmetry adapted cartesian basis functions of A"  symmetry.
 There are    67 symmetry adapted basis functions of A'  symmetry.
 There are    27 symmetry adapted basis functions of A"  symmetry.
    94 basis functions,   165 primitive gaussians,   102 cartesian basis functions
    24 alpha electrons       23 beta electrons
       nuclear repulsion energy       144.3815558749 Hartrees.
 NAtoms=    7 NActive=    7 NUniq=    6 SFac= 1.36D+00 NAtFMM=   60 NAOKFM=F Big=F
 Integral buffers will be    131072 words long.
 Raffenetti 2 integral format.
 Two-electron integral symmetry is turned on.
 One-electron integrals computed using PRISM.
 NBasis=    94 RedAO= T EigKep=  1.33D-02  NBF=    67    27
 NBsUse=    94 1.00D-06 EigRej= -1.00D+00 NBFU=    67    27
 Initial guess from the checkpoint file:  "pescuh2o2.chk"
 B after Tr=     0.000000    0.000000    0.000000
         Rot=    0.999994    0.000000    0.000000    0.003497 Ang=   0.40 deg.
 Initial guess orbital symmetries:
 Alpha Orbitals:
       Occupied  (A') (A') (A') (A") (A') (A') (A') (A') (A') (A")
                 (A') (A') (A') (A') (A") (A') (A") (A') (A') (A')
                 (A') (A") (A') (A")
       Virtual   (A') (A') (A') (A') (A') (A') (A') (A') (A') (A')
                 (A') (A') (A') (A') (A') (A') (A') (A') (A') (A')
                 (A') (A') (A') (A') (A') (A') (A') (A') (A') (A')
                 (A') (A') (A') (A') (A') (A') (A') (A') (A') (A')
                 (A') (A') (A') (A') (A') (A') (A') (A') (A') (A")
                 (A") (A") (A") (A") (A") (A") (A") (A") (A") (A")
                 (A") (A") (A") (A") (A") (A") (A") (A") (A") (A")
 Beta  Orbitals:
       Occupied  (A') (A') (A') (A') (A") (A') (A') (A') (A') (A')
                 (A") (A') (A') (A') (A") (A') (A") (A') (A') (A")
                 (A') (A") (A')
       Virtual   (A') (A') (A') (A') (A') (A') (A') (A') (A') (A')
                 (A') (A') (A') (A') (A') (A') (A') (A') (A') (A')
                 (A') (A') (A') (A') (A') (A') (A') (A') (A') (A')
                 (A') (A') (A') (A') (A') (A') (A') (A') (A') (A')
                 (A') (A') (A') (A') (A') (A') (A') (A') (A') (A')
                 (A") (A") (A") (A") (A") (A") (A") (A") (A") (A")
                 (A") (A") (A") (A") (A") (A") (A") (A") (A") (A")
                 (A")
 Initial guess <Sx>= 0.0000 <Sy>= 0.0000 <Sz>= 0.5000 <S**2>= 0.7629 S= 0.5064
 ExpMin= 4.08D-02 ExpMax= 3.37D+05 ExpMxC= 1.14D+04 IAcc=2 IRadAn=         4 AccDes= 0.00D+00
 Harris functional with IExCor=  402 and IRadAn=       4 diagonalized for initial guess.
 HarFok:  IExCor=  402 AccDes= 0.00D+00 IRadAn=         4 IDoV= 1 UseB2=F ITyADJ=14
 ICtDFT=  3500011 ScaDFX=  1.000000  1.000000  1.000000  1.000000
 FoFCou: FMM=F IPFlag=           0 FMFlag=      100000 FMFlg1=           0
         NFxFlg=           0 DoJE=T BraDBF=F KetDBF=T FulRan=T
         wScrn=  0.000000 ICntrl=     500 IOpCl=  0 I1Cent=   200000004 NGrid=           0
         NMat0=    1 NMatS0=      1 NMatT0=    0 NMatD0=    1 NMtDS0=    0 NMtDT0=    0
 Petite list used in FoFCou.
 Keep R1 and R2 ints in memory in symmetry-blocked form, NReq=15545797.
 Requested convergence on RMS density matrix=1.00D-08 within  64 cycles.
 Requested convergence on MAX density matrix=1.00D-06.
 Requested convergence on             energy=1.00D-06.
 No special actions if energy rises.
 EnCoef did    14 forward-backward iterations
 EnCoef did     4 forward-backward iterations
 EnCoef did     2 forward-backward iterations
 SCF Done:  E(UB3LYP) =  -1792.52114150     A.U. after   17 cycles
            NFock= 17  Conv=0.58D-08     -V/T= 2.0006
 <Sx>= 0.0000 <Sy>= 0.0000 <Sz>= 0.5000 <S**2>= 0.7622 S= 0.5061
 <L.S>= 0.000000000000E+00
 Annihilation of the first spin contaminant:
 S**2 before annihilation     0.7622,   after     0.7500
 QCSCF skips out because SCF is already converged.
 Calling FoFJK, ICntrl=      2127 FMM=F ISym2X=1 I1Cent= 0 IOpClX= 1 NMat=1 NMatS=1 NMatT=0.
 ***** Axes restored to original set *****
 -------------------------------------------------------------------
 Center     Atomic                   Forces (Hartrees/Bohr)
 Number     Number              X              Y              Z
 -------------------------------------------------------------------
      1       29          -0.000376226    0.000000000   -0.004185445
      2        8           0.004368526    0.000000000   -0.057810254
      3        8          -0.054769178    0.000000000    0.026897140
      4        1           0.030531371    0.000000000   -0.006653241
      5        1           0.024717766    0.000000000   -0.020668443
      6        1          -0.002236129   -0.003809967    0.031210122
      7        1          -0.002236129    0.003809967    0.031210122
 -------------------------------------------------------------------
 Cartesian Forces:  Max     0.057810254 RMS     0.022994457

 GradGradGradGradGradGradGradGradGradGradGradGradGradGradGradGradGradGrad
 Berny optimization.
 Using GEDIIS/GDIIS optimizer.
 FormGI is forming the generalized inverse of G from B-inverse, IUseBI=4.
 Internal  Forces:  Max     0.037594999 RMS     0.015210145
 Search for a local minimum.
 Step number   2 out of a maximum of  100 on scan point     1 out of    26
 All quantities printed in internal units (Hartrees-Bohrs-Radians)
 Mixed Optimization -- RFO/linear search
 Update second derivatives using D2CorX and points    1    2
 DE= -2.27D-02 DEPred=-1.80D-02 R= 1.27D+00
 TightC=F SS=  1.41D+00  RLast= 3.02D-01 DXNew= 5.0454D-01 9.0537D-01
 Trust test= 1.27D+00 RLast= 3.02D-01 DXMaxT set to 5.05D-01
 The second derivative matrix:
                          R1        R2        R3        R4        R5
           R1           0.00860
           R2           0.00039   0.19625
           R3           0.00062   0.00801   0.58385
           R4           0.00062   0.00801   0.00704   0.58385
           R5           0.00052   0.00707   0.00683   0.00683   0.58327
           R6           0.00040   0.00514   0.00451   0.00451   0.00438
           A1           0.00002   0.00030   0.00048   0.00048   0.00040
           A2           0.00014  -0.00083  -0.00643  -0.00643  -0.00466
           A3           0.00014  -0.00085  -0.00646  -0.00646  -0.00469
           A4          -0.00027   0.00175   0.01301   0.01301   0.00944
           A5           0.00038   0.00319  -0.00101  -0.00101   0.00008
           A6           0.00043   0.00366  -0.00095  -0.00095   0.00024
           A7          -0.00081  -0.00685   0.00196   0.00196  -0.00032
           D1          -0.00003  -0.00049  -0.00078  -0.00078  -0.00066
           D2           0.00003   0.00049   0.00078   0.00078   0.00066
           D3           0.00000   0.00000   0.00000   0.00000   0.00000
           D4           0.00000   0.00000   0.00000   0.00000   0.00000
           D5          -0.00003  -0.00043  -0.00047  -0.00047  -0.00043
           D6           0.00000   0.00000   0.00000   0.00000   0.00000
                          R6        A1        A2        A3        A4
           R6           0.57970
           A1           0.00031   0.25001
           A2          -0.00414   0.00011   0.15126
           A3          -0.00416   0.00011  -0.00875   0.15125
           A4           0.00838  -0.00021   0.01754   0.01756   0.12479
           A5          -0.00066   0.00030  -0.00886  -0.00889   0.01784
           A6          -0.00063   0.00033  -0.00981  -0.00983   0.01975
           A7           0.00129  -0.00063   0.01867   0.01872  -0.03759
           D1          -0.00050  -0.00002  -0.00019  -0.00019   0.00038
           D2           0.00050   0.00002   0.00019   0.00019  -0.00038
           D3           0.00000   0.00000   0.00000   0.00000   0.00000
           D4           0.00000   0.00000   0.00000   0.00000   0.00000
           D5          -0.00030  -0.00002   0.00019   0.00019  -0.00038
           D6           0.00000   0.00000   0.00000   0.00000   0.00000
                          A5        A6        A7        D1        D2
           A5           0.15359
           A6          -0.00702   0.15233
           A7           0.01343   0.01469   0.13188
           D1          -0.00049  -0.00056   0.00105   0.00233
           D2           0.00049   0.00056  -0.00105  -0.00003   0.00233
           D3           0.00000   0.00000   0.00000   0.00000   0.00000
           D4           0.00000   0.00000   0.00000   0.00000   0.00000
           D5          -0.00009  -0.00011   0.00020   0.00004  -0.00004
           D6           0.00000   0.00000   0.00000   0.00000   0.00000
                          D3        D4        D5        D6
           D3           0.03612
           D4           0.00000   0.03612
           D5           0.00000   0.00000   0.01692
           D6           0.00000   0.00000   0.00000   0.01690
 ITU=  1  0
 Use linear search instead of GDIIS.
 Linear search step of   0.600 exceeds DXMaxT=   0.505 but not scaled.
 Quartic linear search produced a step of  2.00000.
 Iteration  1 RMS(Cart)=  0.10648738 RMS(Int)=  0.04143988
 Iteration  2 RMS(Cart)=  0.04176531 RMS(Int)=  0.00324371
 Iteration  3 RMS(Cart)=  0.00122029 RMS(Int)=  0.00297729
 Iteration  4 RMS(Cart)=  0.00000113 RMS(Int)=  0.00297729
 Iteration  5 RMS(Cart)=  0.00000000 RMS(Int)=  0.00297729
 Iteration  1 RMS(Cart)=  0.00000000 RMS(Int)=  0.00000000
 ClnCor:  largest displacement from symmetrization is 5.36D-04 for atom     7.
 Variable       Old X    -DE/DX   Delta X   Delta X   Delta X     New X
                                 (Linear)    (Quad)   (Total)
    R1        7.34197   0.00463   0.00000   0.00000   0.00000   7.34197
    R2        3.58520   0.00057   0.04590   0.00000   0.04590   3.63110
    R3        1.81824   0.00913   0.04601   0.00000   0.04613   1.86437
    R4        1.81824   0.00913   0.04601   0.00000   0.04613   1.86437
    R5        1.81302   0.00628   0.03556   0.00000   0.03556   1.84858
    R6        1.81004   0.00589   0.02960   0.00000   0.02960   1.83965
    A1        2.00713   0.00271   0.00000   0.00000   0.00000   2.00713
    A2        1.98618   0.01823   0.15109   0.00000   0.15043   2.13661
    A3        1.98618   0.01825   0.15109   0.00000   0.15043   2.13661
    A4        2.31053  -0.03652  -0.30278   0.00000  -0.30334   2.00718
    A5        2.00008   0.01786   0.17890   0.00000   0.17890   2.17898
    A6        2.01001   0.01974   0.19875   0.00000   0.19875   2.20875
    A7        2.27310  -0.03759  -0.37764   0.00000  -0.37764   1.89546
    D1        1.58240   0.00112   0.02320   0.00000   0.03048   1.61288
    D2       -1.58240  -0.00112  -0.02320   0.00000  -0.03048  -1.61288
    D3        3.14159   0.00000   0.00000   0.00000   0.00000   3.14159
    D4        0.00000   0.00000   0.00000   0.00000   0.00000   0.00000
    D5        3.11286  -0.00158  -0.05747   0.00000  -0.04964   3.06322
    D6        3.14159   0.00000   0.00000   0.00000   0.00000   3.14159
         Item               Value     Threshold  Converged?
 Maximum Force            0.037595     0.000450     NO 
 RMS     Force            0.016027     0.000300     NO 
 Maximum Displacement     0.361791     0.001800     NO 
 RMS     Displacement     0.143973     0.001200     NO 
 Predicted change in Energy=-2.760437D-02
 GradGradGradGradGradGradGradGradGradGradGradGradGradGradGradGradGradGrad

                          Input orientation:                          
 ---------------------------------------------------------------------
 Center     Atomic      Atomic             Coordinates (Angstroms)
 Number     Number       Type             X           Y           Z
 ---------------------------------------------------------------------
      1         29           0       -0.089750    0.000000   -0.007024
      2          8           0       -0.029850    0.000000    3.877717
      3          8           0        1.638987    0.000000   -0.845835
      4          1           0        1.791387    0.000000   -1.812116
      5          1           0        2.501985    0.000000   -0.395351
      6          1           0       -0.056726    0.832090    4.407102
      7          1           0       -0.056726   -0.832090    4.407102
 ---------------------------------------------------------------------
                    Distance matrix (angstroms):
                    1          2          3          4          5
     1  Cu   0.000000
     2  O    3.885203   0.000000
     3  O    1.921493   5.009686   0.000000
     4  H    2.607112   5.974203   0.978226   0.000000
     5  H    2.620666   4.966820   0.973499   1.584984   0.000000
     6  H    4.491991   0.986583   5.582219   6.541145   5.504810
     7  H    4.491991   0.986583   5.582219   6.541145   5.504810
                    6          7
     6  H    0.000000
     7  H    1.664181   0.000000
 Stoichiometry    CuH4O2(2+,2)
 Framework group  CS[SG(CuH2O2),X(H2)]
 Deg. of freedom    10
 Full point group                 CS      NOp   2
 Largest Abelian subgroup         CS      NOp   2
 Largest concise Abelian subgroup CS      NOp   2
                         Standard orientation:                         
 ---------------------------------------------------------------------
 Center     Atomic      Atomic             Coordinates (Angstroms)
 Number     Number       Type             X           Y           Z
 ---------------------------------------------------------------------
      1         29           0        0.000000    0.740451    0.000000
      2          8           0       -1.966884   -2.610097    0.000000
      3          8           0        1.912920    0.559143    0.000000
      4          1           0        2.545112    1.305641    0.000000
      5          1           0        2.416314   -0.274101    0.000000
      6          1           0       -2.264857   -3.048485    0.832090
      7          1           0       -2.264857   -3.048485   -0.832090
 ---------------------------------------------------------------------
 Rotational constants (GHZ):     12.4610074      1.8469725      1.6229709
 Standard basis: 6-311G(d) (5D, 7F)
 There are    74 symmetry adapted cartesian basis functions of A'  symmetry.
 There are    28 symmetry adapted cartesian basis functions of A"  symmetry.
 There are    67 symmetry adapted basis functions of A'  symmetry.
 There are    27 symmetry adapted basis functions of A"  symmetry.
    94 basis functions,   165 primitive gaussians,   102 cartesian basis functions
    24 alpha electrons       23 beta electrons
       nuclear repulsion energy       142.1687385532 Hartrees.
 NAtoms=    7 NActive=    7 NUniq=    6 SFac= 1.36D+00 NAtFMM=   60 NAOKFM=F Big=F
 Integral buffers will be    131072 words long.
 Raffenetti 2 integral format.
 Two-electron integral symmetry is turned on.
 One-electron integrals computed using PRISM.
 NBasis=    94 RedAO= T EigKep=  1.33D-02  NBF=    67    27
 NBsUse=    94 1.00D-06 EigRej= -1.00D+00 NBFU=    67    27
 Initial guess from the checkpoint file:  "pescuh2o2.chk"
 B after Tr=     0.000000    0.000000    0.000000
         Rot=    0.999978    0.000000    0.000000    0.006691 Ang=   0.77 deg.
 Initial guess orbital symmetries:
 Alpha Orbitals:
       Occupied  (A') (A') (A') (A") (A') (A') (A') (A') (A') (A")
                 (A') (A') (A') (A') (A") (A') (A") (A') (A') (A')
                 (A') (A") (A') (A")
       Virtual   (A') (A') (A') (A') (A') (A') (A') (A') (A') (A')
                 (A') (A') (A') (A') (A') (A') (A') (A') (A') (A')
                 (A') (A') (A') (A') (A') (A') (A') (A') (A') (A')
                 (A') (A') (A') (A') (A') (A') (A') (A') (A') (A')
                 (A') (A') (A') (A') (A') (A') (A') (A') (A') (A")
                 (A") (A") (A") (A") (A") (A") (A") (A") (A") (A")
                 (A") (A") (A") (A") (A") (A") (A") (A") (A") (A")
 Beta  Orbitals:
       Occupied  (A') (A') (A') (A') (A") (A') (A') (A') (A') (A')
                 (A") (A') (A') (A') (A") (A') (A") (A') (A') (A")
                 (A') (A") (A')
       Virtual   (A') (A') (A') (A') (A') (A') (A') (A') (A') (A')
                 (A') (A') (A') (A') (A') (A') (A') (A') (A') (A')
                 (A') (A') (A') (A') (A') (A') (A') (A') (A') (A')
                 (A') (A') (A') (A') (A') (A') (A') (A') (A') (A')
                 (A') (A') (A') (A') (A') (A') (A') (A') (A') (A')
                 (A") (A") (A") (A") (A") (A") (A") (A") (A") (A")
                 (A") (A") (A") (A") (A") (A") (A") (A") (A") (A")
                 (A")
 Initial guess <Sx>= 0.0000 <Sy>= 0.0000 <Sz>= 0.5000 <S**2>= 0.7623 S= 0.5061
 ExpMin= 4.08D-02 ExpMax= 3.37D+05 ExpMxC= 1.14D+04 IAcc=2 IRadAn=         4 AccDes= 0.00D+00
 Harris functional with IExCor=  402 and IRadAn=       4 diagonalized for initial guess.
 HarFok:  IExCor=  402 AccDes= 0.00D+00 IRadAn=         4 IDoV= 1 UseB2=F ITyADJ=14
 ICtDFT=  3500011 ScaDFX=  1.000000  1.000000  1.000000  1.000000
 FoFCou: FMM=F IPFlag=           0 FMFlag=      100000 FMFlg1=           0
         NFxFlg=           0 DoJE=T BraDBF=F KetDBF=T FulRan=T
         wScrn=  0.000000 ICntrl=     500 IOpCl=  0 I1Cent=   200000004 NGrid=           0
         NMat0=    1 NMatS0=      1 NMatT0=    0 NMatD0=    1 NMtDS0=    0 NMtDT0=    0
 Petite list used in FoFCou.
 Keep R1 and R2 ints in memory in symmetry-blocked form, NReq=15545797.
 Requested convergence on RMS density matrix=1.00D-08 within  64 cycles.
 Requested convergence on MAX density matrix=1.00D-06.
 Requested convergence on             energy=1.00D-06.
 No special actions if energy rises.
 SCF Done:  E(UB3LYP) =  -1792.54443420     A.U. after   20 cycles
            NFock= 20  Conv=0.45D-08     -V/T= 2.0007
 <Sx>= 0.0000 <Sy>= 0.0000 <Sz>= 0.5000 <S**2>= 0.7610 S= 0.5055
 <L.S>= 0.000000000000E+00
 Annihilation of the first spin contaminant:
 S**2 before annihilation     0.7610,   after     0.7500
 QCSCF skips out because SCF is already converged.
 Calling FoFJK, ICntrl=      2127 FMM=F ISym2X=1 I1Cent= 0 IOpClX= 1 NMat=1 NMatS=1 NMatT=0.
 ***** Axes restored to original set *****
 -------------------------------------------------------------------
 Center     Atomic                   Forces (Hartrees/Bohr)
 Number     Number              X              Y              Z
 -------------------------------------------------------------------
      1       29           0.008139008    0.000000000   -0.007777945
      2        8           0.001952227    0.000000000   -0.007903613
      3        8          -0.002111038    0.000000000   -0.001960956
      4        1          -0.002022547    0.000000000    0.006956263
      5        1          -0.003897852    0.000000000   -0.001448637
      6        1          -0.001029899   -0.013282111    0.006067444
      7        1          -0.001029899    0.013282111    0.006067444
 -------------------------------------------------------------------
 Cartesian Forces:  Max     0.013282111 RMS     0.005772142

 GradGradGradGradGradGradGradGradGradGradGradGradGradGradGradGradGradGrad
 Berny optimization.
 Using GEDIIS/GDIIS optimizer.
 FormGI is forming the generalized inverse of G from B-inverse, IUseBI=4.
 Internal  Forces:  Max     0.015254482 RMS     0.005831280
 Search for a local minimum.
 Step number   3 out of a maximum of  100 on scan point     1 out of    26
 All quantities printed in internal units (Hartrees-Bohrs-Radians)
 Mixed Optimization -- RFO/linear search
 Update second derivatives using D2CorX and points    2    3
 The second derivative matrix:
                          R1        R2        R3        R4        R5
           R1           0.00858
           R2           0.00010   0.19132
           R3           0.00019   0.00079   0.57349
           R4           0.00019   0.00079  -0.00332   0.57349
           R5           0.00015   0.00072  -0.00238  -0.00238   0.57513
           R6           0.00011   0.00028  -0.00256  -0.00256  -0.00186
           A1           0.00001   0.00016   0.00028   0.00028   0.00023
[...]
           A7         110.19807 109.63243 109.64606 109.61763 109.53202
           D1         110.47612  78.79145  80.29225  82.08701  83.57046
           D2        -110.47437 -78.66590 -80.31338 -82.00584 -83.52414
           D3        -180.00017 179.98634 179.92887 179.90191 179.91438
           D4           0.00008  -0.26792  -0.22262  -0.19196  -0.18992
           D5         143.40549-160.42363-163.19316-166.24405-168.87381
           D6         180.00022 179.77969 179.86832 179.91823 179.90917
                          21        22        23        24        25
     Eigenvalues --  **************************************************
           R1           1.88520   1.78520   1.68520   1.58520   1.48520
           R2           1.86603   1.87179   1.87861   1.88550   1.89284
           R3           0.97700   0.97874   0.98103   0.98407   0.98845
           R4           0.97699   0.97873   0.98102   0.98406   0.98845
           R5           0.97527   0.97518   0.97506   0.97499   0.97510
           R6           0.97309   0.97286   0.97258   0.97231   0.97219
           A1         115.00000 115.00000 115.00000 115.00000 115.00000
           A2         125.36818 125.65773 125.98993 126.42097 126.98787
           A3         125.35359 125.63053 125.97981 126.42073 126.99610
           A4         108.53416 108.14690 107.51928 106.61960 105.42572
           A5         125.64699 125.73644 125.78181 125.78315 125.78330
           A6         124.95460 125.04184 125.19654 125.37998 125.52770
           A7         109.39834 109.22169 109.02164 108.83687 108.68897
           D1          84.51198  85.18838  85.39886  85.23242  84.94254
           D2         -84.45810 -85.15746 -85.36296 -85.20533 -84.94147
           D3         179.91722 179.89059 179.83901 179.75648 179.57081
           D4          -0.19283  -0.19006  -0.20158  -0.24010  -0.35980
           D5        -170.52733-171.75304-172.17019-171.98107-171.63244
           D6         179.90437 179.93007 179.96492-179.99705-179.94038
                          26
     Eigenvalues --  **********
           R1           1.38520
           R2           1.89292
           R3           0.99400
           R4           0.99402
           R5           0.97465
           R6           0.97468
           A1         115.00000
           A2         127.61392
           A3         127.61034
           A4         103.78268
           A5         125.60323
           A6         125.62518
           A7         108.76030
           D1          83.30030
           D2         -83.41326
           D3          89.26921
           D4         -89.36942
           D5        -169.19565
           D6        -178.83136
                          Input orientation:                          
 ---------------------------------------------------------------------
 Center     Atomic      Atomic             Coordinates (Angstroms)
 Number     Number       Type             X           Y           Z
 ---------------------------------------------------------------------
      1         29           0       -0.050821    0.438588    1.255167
      2          8           0        0.118345   -0.000045    2.558153
      3          8           0        1.400903    0.078484    0.095004
      4          1           0        1.514904   -0.730059   -0.437174
      5          1           0        2.166665    0.662674   -0.054428
      6          1           0        0.597261    0.462049    3.296486
      7          1           0       -0.047952   -0.911691    2.917767
 ---------------------------------------------------------------------
                    Distance matrix (angstroms):
                    1          2          3          4          5
     1  Cu   0.000000
     2  O    1.385203   0.000000
     3  O    1.892923   2.778169   0.000000
     4  H    2.584811   3.384565   0.974655   0.000000
     5  H    2.585053   3.385320   0.974679   1.584611   0.000000
     6  H    2.141856   0.993996   3.323019   4.025346   3.705659
     7  H    2.141845   0.994020   3.323796   3.705555   4.027046
                    6          7
     6  H    0.000000
     7  H    1.564254   0.000000
 Stoichiometry    CuH4O2(2+,2)
 Framework group  C1[X(CuH4O2)]
 Deg. of freedom    15
 Full point group                 C1      NOp   1
 Largest Abelian subgroup         C1      NOp   1
 Largest concise Abelian subgroup C1      NOp   1
                         Standard orientation:                         
 ---------------------------------------------------------------------
 Center     Atomic      Atomic             Coordinates (Angstroms)
 Number     Number       Type             X           Y           Z
 ---------------------------------------------------------------------
      1         29           0       -0.154545    0.367278   -0.000004
      2          8           0       -1.174415   -0.570086    0.000074
      3          8           0        1.595376   -0.354480   -0.000027
      4          1           0        2.116044   -0.580212   -0.792430
      5          1           0        2.116919   -0.578976    0.792181
      6          1           0       -1.558896   -1.048218    0.782118
      7          1           0       -1.559961   -1.047138   -0.782136
 ---------------------------------------------------------------------
 Rotational constants (GHZ):     24.2839345      6.2636124      5.2371162

 **********************************************************************

            Population analysis using the SCF density.

 **********************************************************************

 Orbital symmetries:
 Alpha Orbitals:
       Occupied  (A) (A) (A) (A) (A) (A) (A) (A) (A) (A) (A) (A)
                 (A) (A) (A) (A) (A) (A) (A) (A) (A) (A) (A) (A)
       Virtual   (A) (A) (A) (A) (A) (A) (A) (A) (A) (A) (A) (A)
                 (A) (A) (A) (A) (A) (A) (A) (A) (A) (A) (A) (A)
                 (A) (A) (A) (A) (A) (A) (A) (A) (A) (A) (A) (A)
                 (A) (A) (A) (A) (A) (A) (A) (A) (A) (A) (A) (A)
                 (A) (A) (A) (A) (A) (A) (A) (A) (A) (A) (A) (A)
                 (A) (A) (A) (A) (A) (A) (A) (A) (A) (A)
 Beta  Orbitals:
       Occupied  (A) (A) (A) (A) (A) (A) (A) (A) (A) (A) (A) (A)
                 (A) (A) (A) (A) (A) (A) (A) (A) (A) (A) (A)
       Virtual   (A) (A) (A) (A) (A) (A) (A) (A) (A) (A) (A) (A)
                 (A) (A) (A) (A) (A) (A) (A) (A) (A) (A) (A) (A)
                 (A) (A) (A) (A) (A) (A) (A) (A) (A) (A) (A) (A)
                 (A) (A) (A) (A) (A) (A) (A) (A) (A) (A) (A) (A)
                 (A) (A) (A) (A) (A) (A) (A) (A) (A) (A) (A) (A)
                 (A) (A) (A) (A) (A) (A) (A) (A) (A) (A) (A)
 The electronic state is 2-A.
 Alpha  occ. eigenvalues -- -323.58290 -39.40251 -34.63613 -34.62091 -34.60363
 Alpha  occ. eigenvalues --  -19.70082 -19.60986  -4.94215  -3.48235  -3.43263
 Alpha  occ. eigenvalues --   -3.39830  -1.61293  -1.49264  -1.13946  -1.12373
 Alpha  occ. eigenvalues --   -1.02365  -1.01207  -0.96271  -0.88852  -0.88150
 Alpha  occ. eigenvalues --   -0.87282  -0.83972  -0.81179  -0.78663
 Alpha virt. eigenvalues --   -0.48321  -0.37924  -0.33232  -0.33228  -0.26633
 Alpha virt. eigenvalues --   -0.20081  -0.18703  -0.03544  -0.02145   0.01445
 Alpha virt. eigenvalues --    0.12716   0.20280   0.28896   0.32688   0.38055
 Alpha virt. eigenvalues --    0.41067   0.58644   0.67876   0.83914   0.89909
 Alpha virt. eigenvalues --    0.95923   0.97626   1.04043   1.14406   1.18421
 Alpha virt. eigenvalues --    1.48194   1.53605   1.59887   1.61489   1.63907
 Alpha virt. eigenvalues --    2.13697   2.16848   2.22796   2.27389   2.37061
 Alpha virt. eigenvalues --    2.46072   2.55317   2.65325   2.67739   2.93844
 Alpha virt. eigenvalues --    3.13712   3.38118   3.38712   3.39308   3.40281
 Alpha virt. eigenvalues --    3.56316   3.63027   3.70973   4.24084   4.30243
 Alpha virt. eigenvalues --    4.42679   4.47868   4.52917   5.30125   6.60965
 Alpha virt. eigenvalues --    6.61061   6.71890   6.76455   6.79314   8.87775
 Alpha virt. eigenvalues --    8.96245   9.51256  31.53647  42.26300  42.31634
 Alpha virt. eigenvalues --   42.71201  49.21929  49.24815 183.56271 978.83170
  Beta  occ. eigenvalues -- -323.58255 -39.38172 -34.61099 -34.60125 -34.59761
  Beta  occ. eigenvalues --  -19.69611 -19.60641  -4.90049  -3.41391  -3.38521
  Beta  occ. eigenvalues --   -3.38389  -1.60018  -1.48562  -1.11773  -1.11080
  Beta  occ. eigenvalues --   -1.00884  -0.98534  -0.94077  -0.86873  -0.86128
  Beta  occ. eigenvalues --   -0.85132  -0.81733  -0.78331
  Beta virt. eigenvalues --   -0.62588  -0.47536  -0.37614  -0.33042  -0.32994
  Beta virt. eigenvalues --   -0.26477  -0.19874  -0.18494  -0.03203  -0.01958
  Beta virt. eigenvalues --    0.01602   0.13943   0.21644   0.29219   0.33060
  Beta virt. eigenvalues --    0.39080   0.41302   0.59468   0.68298   0.84622
  Beta virt. eigenvalues --    0.91148   0.97415   1.00283   1.04807   1.15813
  Beta virt. eigenvalues --    1.19158   1.50574   1.53865   1.60195   1.61736
  Beta virt. eigenvalues --    1.64082   2.15315   2.17945   2.24028   2.27865
  Beta virt. eigenvalues --    2.38034   2.47385   2.56361   2.66072   2.68226
  Beta virt. eigenvalues --    2.94422   3.15722   3.38712   3.39476   3.41506
  Beta virt. eigenvalues --    3.42267   3.59339   3.65308   3.72464   4.25221
  Beta virt. eigenvalues --    4.31092   4.43227   4.48957   4.53212   5.31950
  Beta virt. eigenvalues --    6.62666   6.62737   6.73558   6.79989   6.84958
  Beta virt. eigenvalues --    8.88799   8.99242   9.55048  31.56405  42.27144
  Beta virt. eigenvalues --   42.34066  42.74512  49.22402  49.25180 183.57337
  Beta virt. eigenvalues --  978.83403
          Condensed to atoms (all electrons):
               1          2          3          4          5          6
     1  Cu  27.437385   0.006176   0.077225  -0.004426  -0.004419  -0.011517
     2  O    0.006176   8.417561   0.001160   0.000930   0.000926   0.229405
     3  O    0.077225   0.001160   8.339147   0.247711   0.247707   0.001540
     4  H   -0.004426   0.000930   0.247711   0.212595  -0.016129  -0.000029
     5  H   -0.004419   0.000926   0.247707  -0.016129   0.212558   0.000152
     6  H   -0.011517   0.229405   0.001540  -0.000029   0.000152   0.209317
     7  H   -0.011501   0.229391   0.001533   0.000152  -0.000029  -0.014903
               7
     1  Cu  -0.011501
     2  O    0.229391
     3  O    0.001533
     4  H    0.000152
     5  H   -0.000029
     6  H   -0.014903
     7  H    0.209324
          Atomic-Atomic Spin Densities.
               1          2          3          4          5          6
     1  Cu   0.789571  -0.076780  -0.029391   0.000828   0.000828   0.000743
     2  O   -0.076780   0.313616  -0.015720   0.000314   0.000312  -0.001250
     3  O   -0.029391  -0.015720   0.141770  -0.001200  -0.001196  -0.000039
     4  H    0.000828   0.000314  -0.001200   0.001230   0.000703  -0.000001
     5  H    0.000828   0.000312  -0.001196   0.000703   0.001244  -0.000008
     6  H    0.000743  -0.001250  -0.000039  -0.000001  -0.000008  -0.002122
     7  H    0.000744  -0.001246  -0.000039  -0.000008  -0.000001   0.000807
               7
     1  Cu   0.000744
     2  O   -0.001246
     3  O   -0.000039
     4  H   -0.000008
     5  H   -0.000001
     6  H    0.000807
     7  H   -0.002105
 Mulliken charges and spin densities:
               1          2
     1  Cu   1.511078   0.686543
     2  O   -0.885550   0.219245
     3  O   -0.916024   0.094185
     4  H    0.559196   0.001866
     5  H    0.559233   0.001882
     6  H    0.586034  -0.001871
     7  H    0.586033  -0.001849
 Sum of Mulliken charges =   2.00000   1.00000
 Mulliken charges and spin densities with hydrogens summed into heavy atoms:
               1          2
     1  Cu   1.511078   0.686543
     2  O    0.286517   0.215525
     3  O    0.202405   0.097932
 Electronic spatial extent (au):  <R**2>=            230.7469
 Charge=              2.0000 electrons
 Dipole moment (field-independent basis, Debye):
    X=             -0.2082    Y=             -2.3439    Z=             -0.0008  Tot=              2.3531
 Quadrupole moment (field-independent basis, Debye-Ang):
   XX=              0.3767   YY=            -14.1487   ZZ=            -14.2857
   XY=              1.8404   XZ=              0.0041   YZ=              0.0009
 Traceless Quadrupole moment (field-independent basis, Debye-Ang):
   XX=              9.7293   YY=             -4.7962   ZZ=             -4.9331
   XY=              1.8404   XZ=              0.0041   YZ=              0.0009
 Octapole moment (field-independent basis, Debye-Ang**2):
  XXX=             14.5320  YYY=              4.5597  ZZZ=             -0.0018  XYY=             -7.2388
  XXY=            -18.6686  XXZ=             -0.0019  XZZ=              0.2945  YZZ=             -2.5320
  YYZ=              0.0014  XYZ=              0.0070
 Hexadecapole moment (field-independent basis, Debye-Ang**3):
 XXXX=            -68.4058 YYYY=            -33.0105 ZZZZ=            -11.9959 XXXY=             -6.3747
 XXXZ=              0.0431 YYYX=              6.9954 YYYZ=             -0.0048 ZZZX=              0.0025
 ZZZY=              0.0015 XXYY=            -16.1136 XXZZ=             -7.6140 YYZZ=             -4.3774
 XXYZ=              0.0118 YYXZ=             -0.0115 ZZXY=              1.2410
 N-N= 2.153541710449D+02 E-N=-4.690945687917D+03  KE= 1.792535126772D+03
                          Isotropic Fermi Contact Couplings
        Atom                 a.u.       MegaHertz       Gauss      10(-4) cm-1
     1  Cu(63)             0.18541     219.91124      78.46980      73.35449
     2  O(17)              0.10724     -65.00736     -23.19624     -21.68412
     3  O(17)              0.15492     -93.90899     -33.50906     -31.32467
     4  H(1)               0.00186       8.29441       2.95965       2.76672
     5  H(1)               0.00187       8.34304       2.97700       2.78294
     6  H(1)               0.00077       3.43807       1.22679       1.14682
     7  H(1)               0.00078       3.49202       1.24604       1.16481
 --------------------------------------------------------
       Center         ----  Spin Dipole Couplings  ----
                      3XX-RR        3YY-RR        3ZZ-RR
 --------------------------------------------------------
     1   Atom        1.543747      2.103326     -3.647073
     2   Atom        0.683844     -0.317845     -0.365999
     3   Atom        0.430042     -0.204692     -0.225350
     4   Atom        0.007448     -0.014498      0.007049
     5   Atom        0.007467     -0.014522      0.007055
     6   Atom       -0.002684     -0.007323      0.010007
     7   Atom       -0.002652     -0.007393      0.010045
 --------------------------------------------------------
                        XY            XZ            YZ
 --------------------------------------------------------
     1   Atom        1.368941      0.000529      0.001156
     2   Atom       -0.054435     -0.000634      0.000043
     3   Atom        0.102734     -0.000315     -0.000046
     4   Atom       -0.007748     -0.015334      0.008830
     5   Atom       -0.007732      0.015347     -0.008792
     6   Atom        0.018596     -0.015574     -0.027524
     7   Atom        0.018610      0.015612      0.027478
 --------------------------------------------------------


 ---------------------------------------------------------------------------------
              Anisotropic Spin Dipole Couplings in Principal Axis System
 ---------------------------------------------------------------------------------

       Atom             a.u.   MegaHertz   Gauss  10(-4) cm-1        Axes

              Baa    -3.6471  -516.359  -184.250  -172.239 -0.0001 -0.0002  1.0000
     1 Cu(63) Bbb     0.4263    60.356    21.536    20.132  0.7747 -0.6324 -0.0001
              Bcc     3.2208   456.003   162.713   152.106  0.6324  0.7747  0.0002
 
              Baa    -0.3660    26.483     9.450     8.834  0.0006 -0.0002  1.0000
     2 O(17)  Bbb    -0.3208    23.212     8.283     7.743  0.0541  0.9985  0.0002
              Bcc     0.6868   -49.696   -17.733   -16.577  0.9985 -0.0541 -0.0006
 
              Baa    -0.2254    16.306     5.818     5.439  0.0006 -0.0007  1.0000
     3 O(17)  Bbb    -0.2209    15.985     5.704     5.332 -0.1559  0.9878  0.0008
              Bcc     0.4463   -32.291   -11.522   -10.771  0.9878  0.1559 -0.0005
 
              Baa    -0.0180    -9.580    -3.418    -3.196  0.1396  0.9575 -0.2525
     4 H(1)   Bbb    -0.0080    -4.280    -1.527    -1.428  0.7210  0.0765  0.6887
              Bcc     0.0260    13.860     4.946     4.623 -0.6788  0.2782  0.6796
 
              Baa    -0.0180    -9.579    -3.418    -3.195  0.1398  0.9578  0.2510
     5 H(1)   Bbb    -0.0080    -4.282    -1.528    -1.428  0.7205  0.0754 -0.6893
              Bcc     0.0260    13.861     4.946     4.624  0.6792 -0.2772  0.6796
 
              Baa    -0.0294   -15.703    -5.603    -5.238 -0.3123  0.8325  0.4577
     6 H(1)   Bbb    -0.0132    -7.019    -2.505    -2.341  0.8283  0.0028  0.5602
              Bcc     0.0426    22.722     8.108     7.579 -0.4651 -0.5541  0.6904
 
              Baa    -0.0294   -15.702    -5.603    -5.238 -0.3130  0.8331 -0.4561
     7 H(1)   Bbb    -0.0132    -7.020    -2.505    -2.341  0.8276  0.0037 -0.5613
              Bcc     0.0426    22.722     8.108     7.579  0.4659  0.5532  0.6906
 

 ---------------------------------------------------------------------------------

 B after Tr=     0.641807   -1.185283   -1.061404
         Rot=    0.975157    0.119404    0.046492   -0.180693 Ang=  25.60 deg.
 Atom   5 needs variable   3=   0.9746790561 but is    0.9746545622
 Input z-matrix variables are not compatible with final structure.
 1\1\GINC-MILLENNIUM-FALCON\Scan\UB3LYP\6-311G(d)\Cu1H4O2(2+,2)\JAKE\17
 -Jun-2016\0\\#opt=(modredundant,maxcycles=350) B3LYP/6-311G* scf=xqc\\
 cu2(h20)2\\2,2\Cu,-0.3343816888,0.8039853921,1.1618039123\O,-0.1652151
 144,0.3653530893,2.4647896084\O,1.1173427023,0.4438817379,0.0016404936
 \H,1.2313433131,-0.3646614926,-0.5305373157\H,1.8831048035,1.028071653
 3,-0.1477911276\H,0.3137011215,0.8274470186,3.203123204\H,-0.331512211
 ,-0.5462934448,2.8244038104\\Version=EM64L-G09RevD.01\State=2-A\HF=-17
 92.5466501,-1792.5459553,-1792.54533,-1792.5447968,-1792.5443873,-1792
 .5441297,-1792.5440689,-1792.5442655,-1792.5447804,-1792.5456743,-1792
 .5470364,-1792.548952,-1792.5515064,-1792.554797,-1792.5590962,-1792.5
 640519,-1792.5761645,-1792.5825193,-1792.5886192,-1792.5935681,-1792.5
 959246,-1792.5936248,-1792.5831904,-1792.5591438,-1792.5127916,-1792.4
 347053\S2=0.761998,0.762031,0.762112,0.762239,0.762403,0.762606,0.7628
 55,0.763138,0.763403,0.763588,0.763585,0.763233,0.762332,0.760706,0.75
 8286,0.75521,0.753739,0.752717,0.752007,0.751572,0.751332,0.751214,0.7
 51177,0.751195,0.751246,0.751533\S2-1=0.,0.,0.,0.,0.,0.,0.,0.,0.,0.,0.
 ,0.,0.,0.,0.,0.,0.,0.,0.,0.,0.,0.,0.,0.,0.,0.\S2A=0.750019,0.750018,0.
 750018,0.750018,0.750018,0.750017,0.750017,0.750017,0.750016,0.750016,
 0.750015,0.750014,0.750013,0.750011,0.750008,0.750005,0.750003,0.75000
 2,0.750002,0.750001,0.750001,0.750001,0.750001,0.750001,0.750001,0.750
 002\RMSD=7.707e-09,5.375e-09,4.472e-09,7.456e-09,1.475e-09,7.454e-09,8
 .687e-10,5.527e-09,5.251e-09,5.039e-09,4.428e-09,5.358e-09,8.952e-10,8
 .820e-10,6.659e-09,2.949e-09,5.418e-09,4.780e-09,3.429e-09,4.591e-09,2
 .072e-09,5.905e-10,1.010e-09,5.281e-09,1.414e-09,6.616e-09\PG=C01 [X(C
 u1H4O2)]\\@


 It is also a good rule not to put too much confidence in
 experimental results until they have been confirmed by
 Theory.
                             -- Sir Arthur Eddington
 Job cpu time:       0 days  0 hours 34 minutes 40.2 seconds.
 File lengths (MBytes):  RWF=     10 Int=      0 D2E=      0 Chk=      3 Scr=      1
 Normal termination of Gaussian 09 at Fri Jun 17 13:41:49 2016.
