 Entering Gaussian System, Link 0=g09
 Input=2coord_b3lyp_A_F_100.inp
 Output=2coord_b3lyp_A_F_100.log
 Initial command:
 /usr/local/g09/l1.exe "$.inp" -scrdir="./"
 Entering Link 1 = /usr/local/g09/l1.exe PID=      5464.
  
 Copyright (c) 1988,1990,1992,1993,1995,1998,2003,2009,2013,
            Gaussian, Inc.  All Rights Reserved.
  
 This is part of the Gaussian(R) 09 program.  It is based on
 the Gaussian(R) 03 system (copyright 2003, Gaussian, Inc.),
 the Gaussian(R) 98 system (copyright 1998, Gaussian, Inc.),
 the Gaussian(R) 94 system (copyright 1995, Gaussian, Inc.),
 the Gaussian 92(TM) system (copyright 1992, Gaussian, Inc.),
 the Gaussian 90(TM) system (copyright 1990, Gaussian, Inc.),
 the Gaussian 88(TM) system (copyright 1988, Gaussian, Inc.),
 the Gaussian 86(TM) system (copyright 1986, Carnegie Mellon
 University), and the Gaussian 82(TM) system (copyright 1983,
 Carnegie Mellon University). Gaussian is a federally registered
 trademark of Gaussian, Inc.
  
 This software contains proprietary and confidential information,
 including trade secrets, belonging to Gaussian, Inc.
  
 This software is provided under written license and may be
 used, copied, transmitted, or stored only in accord with that
 written license.
  
 The following legend is applicable only to US Government
 contracts under FAR:
  
                    RESTRICTED RIGHTS LEGEND
  
 Use, reproduction and disclosure by the US Government is
 subject to restrictions as set forth in subparagraphs (a)
 and (c) of the Commercial Computer Software - Restricted
 Rights clause in FAR 52.227-19.
  
 Gaussian, Inc.
 340 Quinnipiac St., Bldg. 40, Wallingford CT 06492
  
  
 ---------------------------------------------------------------
 Warning -- This program may not be used in any manner that
 competes with the business of Gaussian, Inc. or will provide
 assistance to any competitor of Gaussian, Inc.  The licensee
 of this program is prohibited from giving any competitor of
 Gaussian, Inc. access to this program.  By using this program,
 the user acknowledges that Gaussian, Inc. is engaged in the
 business of creating and licensing software in the field of
 computational chemistry and represents and warrants to the
 licensee that it is not a competitor of Gaussian, Inc. and that
 it will not use this program in any manner prohibited above.
 ---------------------------------------------------------------
  

 Cite this work as:
 Gaussian 09, Revision D.01,
 M. J. Frisch, G. W. Trucks, H. B. Schlegel, G. E. Scuseria, 
 M. A. Robb, J. R. Cheeseman, G. Scalmani, V. Barone, B. Mennucci, 
 G. A. Petersson, H. Nakatsuji, M. Caricato, X. Li, H. P. Hratchian, 
 A. F. Izmaylov, J. Bloino, G. Zheng, J. L. Sonnenberg, M. Hada, 
 M. Ehara, K. Toyota, R. Fukuda, J. Hasegawa, M. Ishida, T. Nakajima, 
 Y. Honda, O. Kitao, H. Nakai, T. Vreven, J. A. Montgomery, Jr., 
 J. E. Peralta, F. Ogliaro, M. Bearpark, J. J. Heyd, E. Brothers, 
 K. N. Kudin, V. N. Staroverov, T. Keith, R. Kobayashi, J. Normand, 
 K. Raghavachari, A. Rendell, J. C. Burant, S. S. Iyengar, J. Tomasi, 
 M. Cossi, N. Rega, J. M. Millam, M. Klene, J. E. Knox, J. B. Cross, 
 V. Bakken, C. Adamo, J. Jaramillo, R. Gomperts, R. E. Stratmann, 
 O. Yazyev, A. J. Austin, R. Cammi, C. Pomelli, J. W. Ochterski, 
 R. L. Martin, K. Morokuma, V. G. Zakrzewski, G. A. Voth, 
 P. Salvador, J. J. Dannenberg, S. Dapprich, A. D. Daniels, 
 O. Farkas, J. B. Foresman, J. V. Ortiz, J. Cioslowski, 
 and D. J. Fox, Gaussian, Inc., Wallingford CT, 2013.
 
 ******************************************
 Gaussian 09:  EM64L-G09RevD.01 24-Apr-2013
                17-Jun-2016 
 ******************************************
 %mem=2GB
 %nprocshared=1
 Will use up to    1 processors via shared memory.
 %chk=pescuh2o2.chk
 -------------------------------------------------------
 #opt=(modredundant,maxcycles=350) B3LYP/6-311G* scf=xqc
 -------------------------------------------------------
 1/6=350,14=-1,18=120,19=15,26=3,38=1/1,3;
 2/9=110,12=2,17=6,18=5,40=1/2;
 3/5=4,6=6,7=1,11=2,16=1,25=1,30=1,71=1,74=-5/1,2,3;
 4//1;
 5/5=2,8=3,13=1,38=5/2,8;
 6/7=2,8=2,9=2,10=2,28=1/1;
 7//1,2,3,16;
 1/6=350,14=-1,18=20,19=15,26=3/3(2);
 2/9=110/2;
 99//99;
 2/9=110/2;
 3/5=4,6=6,7=1,11=2,16=1,25=1,30=1,71=1,74=-5/1,2,3;
 4/5=5,16=3,69=1/1;
 5/5=2,8=3,13=1,38=5/2,8;
 7//1,2,3,16;
 1/6=350,14=-1,18=20,19=15,26=3/3(-5);
 2/9=110/2;
 6/7=2,8=2,9=2,10=2,19=2,28=1/1;
 99/9=1/99;
 ---------
 cu2(h20)2
 ---------
 Symbolic Z-matrix:
 Charge =  2 Multiplicity = 2
 Cu
 O                    1    A
 O                    1    B        2    H
 H                    3    C        1    D        2    E        0
 H                    3    C        1    D        2    F        0
 H                    2    C        1    D        3    G        0
 H                    2    C        1    D        6    E        0
       Variables:
  A                     3.8852                   
  B                     1.88506                  
  C                     0.95                     
  D                   109.471                    
  E                   180.                       
  F                     0.                       
  G                    90.                       
  H                   100.                       
 
     4 tetrahedral angles replaced.
 Add virtual bond connecting atoms O2         and Cu1        Dist= 7.34D+00.
 The following ModRedundant input section has been read:
 A       2       1       3 F                                                   
 B       1       2 S  25 -0.100                                                
 

 GradGradGradGradGradGradGradGradGradGradGradGradGradGradGradGradGradGrad
 Berny optimization.
 Initialization pass.
                           ----------------------------
                           !    Initial Parameters    !
                           ! (Angstroms and Degrees)  !
 --------------------------                            --------------------------
 ! Name  Definition              Value          Derivative Info.                !
 --------------------------------------------------------------------------------
 ! R1    R(1,2)                  3.8852         Scan                            !
 ! R2    R(1,3)                  1.8851         estimate D2E/DX2                !
 ! R3    R(2,6)                  0.95           estimate D2E/DX2                !
 ! R4    R(2,7)                  0.95           estimate D2E/DX2                !
 ! R5    R(3,4)                  0.95           estimate D2E/DX2                !
 ! R6    R(3,5)                  0.95           estimate D2E/DX2                !
 ! A1    A(2,1,3)              100.0            Frozen                          !
 ! A2    A(1,2,6)              109.4712         estimate D2E/DX2                !
 ! A3    A(1,2,7)              109.4712         estimate D2E/DX2                !
 ! A4    A(6,2,7)              141.0576         estimate D2E/DX2                !
 ! A5    A(1,3,4)              109.4712         estimate D2E/DX2                !
 ! A6    A(1,3,5)              109.4712         estimate D2E/DX2                !
 ! A7    A(4,3,5)              141.0576         estimate D2E/DX2                !
 ! D1    D(3,1,2,6)             90.0            estimate D2E/DX2                !
 ! D2    D(3,1,2,7)            -90.0            estimate D2E/DX2                !
 ! D3    D(2,1,3,4)            180.0            estimate D2E/DX2                !
 ! D4    D(2,1,3,5)              0.0            estimate D2E/DX2                !
 ! D5    D(1,2,6,7)            180.0            estimate D2E/DX2                !
 ! D6    D(1,3,4,5)            180.0            estimate D2E/DX2                !
 --------------------------------------------------------------------------------
 Trust Radius=3.00D-01 FncErr=1.00D-07 GrdErr=1.00D-06
 Number of optimizations in scan=  26
 Number of steps in this run=    100 maximum allowed number of steps=    100.
 GradGradGradGradGradGradGradGradGradGradGradGradGradGradGradGradGradGrad

                          Input orientation:                          
 ---------------------------------------------------------------------
 Center     Atomic      Atomic             Coordinates (Angstroms)
 Number     Number       Type             X           Y           Z
 ---------------------------------------------------------------------
      1         29           0        0.000000    0.000000    0.000000
      2          8           0        0.000000    0.000000    3.885203
      3          8           0        1.856423    0.000000   -0.327337
      4          1           0        2.012747    0.000000   -1.264387
      5          1           0        2.323810    0.000000    0.499735
      6          1           0        0.000000    0.895669    4.201870
      7          1           0        0.000000   -0.895669    4.201870
 ---------------------------------------------------------------------
                    Distance matrix (angstroms):
                    1          2          3          4          5
     1  Cu   0.000000
     2  O    3.885203   0.000000
     3  O    1.885061   4.603455   0.000000
     4  H    2.376936   5.528963   0.950000   0.000000
     5  H    2.376936   4.106274   0.950000   1.791337   0.000000
     6  H    4.296269   0.950000   4.976168   5.893500   4.461851
     7  H    4.296269   0.950000   4.976168   5.893500   4.461851
                    6          7
     6  H    0.000000
     7  H    1.791337   0.000000
 Stoichiometry    CuH4O2(2+,2)
 Framework group  CS[SG(CuH2O2),X(H2)]
 Deg. of freedom    10
 Full point group                 CS      NOp   2
 Largest Abelian subgroup         CS      NOp   2
 Largest concise Abelian subgroup CS      NOp   2
                         Standard orientation:                         
 ---------------------------------------------------------------------
 Center     Atomic      Atomic             Coordinates (Angstroms)
 Number     Number       Type             X           Y           Z
 ---------------------------------------------------------------------
      1         29           0        0.000000    0.834375    0.000000
      2          8           0       -1.823411   -2.596364    0.000000
      3          8           0        1.792898    0.252163    0.000000
      4          1           0        2.370715    1.006237    0.000000
      5          1           0        1.817450   -0.697520    0.000000
      6          1           0       -1.972030   -2.875990    0.895669
      7          1           0       -1.972030   -2.875990   -0.895669
 ---------------------------------------------------------------------
 Rotational constants (GHZ):     10.3723304      2.0556055      1.7346479
 Standard basis: 6-311G(d) (5D, 7F)
 There are    74 symmetry adapted cartesian basis functions of A'  symmetry.
 There are    28 symmetry adapted cartesian basis functions of A"  symmetry.
 There are    67 symmetry adapted basis functions of A'  symmetry.
 There are    27 symmetry adapted basis functions of A"  symmetry.
    94 basis functions,   165 primitive gaussians,   102 cartesian basis functions
    24 alpha electrons       23 beta electrons
       nuclear repulsion energy       146.4705933978 Hartrees.
 NAtoms=    7 NActive=    7 NUniq=    6 SFac= 1.36D+00 NAtFMM=   60 NAOKFM=F Big=F
 Integral buffers will be    131072 words long.
 Raffenetti 2 integral format.
 Two-electron integral symmetry is turned on.
 One-electron integrals computed using PRISM.
 NBasis=    94 RedAO= T EigKep=  1.33D-02  NBF=    67    27
 NBsUse=    94 1.00D-06 EigRej= -1.00D+00 NBFU=    67    27
 ExpMin= 4.08D-02 ExpMax= 3.37D+05 ExpMxC= 1.14D+04 IAcc=2 IRadAn=         4 AccDes= 0.00D+00
 Harris functional with IExCor=  402 and IRadAn=       4 diagonalized for initial guess.
 HarFok:  IExCor=  402 AccDes= 0.00D+00 IRadAn=         4 IDoV= 1 UseB2=F ITyADJ=14
 ICtDFT=  3500011 ScaDFX=  1.000000  1.000000  1.000000  1.000000
 FoFCou: FMM=F IPFlag=           0 FMFlag=      100000 FMFlg1=           0
         NFxFlg=           0 DoJE=T BraDBF=F KetDBF=T FulRan=T
         wScrn=  0.000000 ICntrl=     500 IOpCl=  0 I1Cent=   200000004 NGrid=           0
         NMat0=    1 NMatS0=      1 NMatT0=    0 NMatD0=    1 NMtDS0=    0 NMtDT0=    0
 Petite list used in FoFCou.
 Initial guess orbital symmetries:
 Alpha Orbitals:
       Occupied  (A') (A') (A') (A') (A") (A') (A') (A') (A') (A')
                 (A") (A') (A') (A') (A") (A') (A") (A') (A') (A')
                 (A') (A') (A") (A")
       Virtual   (A') (A') (A') (A') (A") (A') (A') (A') (A') (A")
                 (A") (A') (A') (A') (A') (A") (A') (A') (A") (A')
                 (A') (A") (A') (A") (A') (A') (A') (A') (A") (A')
                 (A") (A") (A") (A') (A') (A') (A') (A") (A') (A')
                 (A') (A') (A") (A') (A') (A") (A") (A') (A") (A')
                 (A') (A') (A") (A') (A") (A') (A") (A') (A') (A")
                 (A') (A') (A') (A") (A') (A') (A') (A') (A') (A')
 Beta  Orbitals:
       Occupied  (A') (A') (A') (A') (A") (A') (A') (A') (A') (A')
                 (A") (A') (A') (A') (A") (A') (A") (A') (A') (A')
                 (A') (A') (A")
       Virtual   (A") (A') (A') (A') (A') (A") (A') (A') (A') (A')
                 (A") (A") (A') (A') (A') (A') (A") (A') (A') (A")
                 (A') (A') (A") (A') (A") (A') (A') (A') (A') (A")
                 (A') (A") (A") (A") (A') (A') (A') (A') (A") (A')
                 (A') (A') (A') (A") (A') (A') (A") (A") (A') (A")
                 (A') (A') (A') (A") (A') (A") (A') (A") (A') (A')
                 (A") (A') (A') (A') (A") (A') (A') (A') (A') (A')
                 (A')
 The electronic state of the initial guess is 2-A".
 Initial guess <Sx>= 0.0000 <Sy>= 0.0000 <Sz>= 0.5000 <S**2>= 0.7500 S= 0.5000
 Keep R1 and R2 ints in memory in symmetry-blocked form, NReq=15545797.
 Requested convergence on RMS density matrix=1.00D-08 within  64 cycles.
 Requested convergence on MAX density matrix=1.00D-06.
 Requested convergence on             energy=1.00D-06.
 No special actions if energy rises.
 EnCoef did   100 forward-backward iterations
 EnCoef did   100 forward-backward iterations
 EnCoef did   100 forward-backward iterations
 EnCoef did   100 forward-backward iterations
 EnCoef did    10 forward-backward iterations
 EnCoef did    95 forward-backward iterations
 EnCoef did    31 forward-backward iterations
 EnCoef did   100 forward-backward iterations
 EnCoef did   100 forward-backward iterations
 EnCoef did   100 forward-backward iterations
 EnCoef did   100 forward-backward iterations
 EnCoef did   100 forward-backward iterations
 EnCoef did   100 forward-backward iterations
 EnCoef did    89 forward-backward iterations
 Rare condition: small coef for last iteration:  0.122D-14
 Rare condition: small coef for last iteration:  0.000D+00
 Rare condition: small coef for last iteration:  0.000D+00
 Rare condition: small coef for last iteration:  0.000D+00
 Rare condition: small coef for last iteration:  0.000D+00
 Rare condition: small coef for last iteration:  0.000D+00
 Rare condition: small coef for last iteration:  0.000D+00
 Rare condition: small coef for last iteration:  0.000D+00
 Rare condition: small coef for last iteration:  0.000D+00
 Rare condition: small coef for last iteration:  0.000D+00
 Rare condition: small coef for last iteration:  0.000D+00
 Rare condition: small coef for last iteration:  0.000D+00
 Rare condition: small coef for last iteration:  0.000D+00
 Rare condition: small coef for last iteration:  0.000D+00
 Rare condition: small coef for last iteration:  0.000D+00
 Rare condition: small coef for last iteration:  0.000D+00
 Rare condition: small coef for last iteration:  0.000D+00
 Rare condition: small coef for last iteration:  0.000D+00
 Rare condition: small coef for last iteration:  0.000D+00
 Rare condition: small coef for last iteration:  0.000D+00
 Rare condition: small coef for last iteration:  0.000D+00
 Rare condition: small coef for last iteration:  0.000D+00
 Rare condition: small coef for last iteration:  0.000D+00
 >>>>>>>>>> Convergence criterion not met.
 SCF Done:  E(UB3LYP) =  -1792.39148308     A.U. after   65 cycles
            NFock= 64  Conv=0.22D-06     -V/T= 1.9988
 <Sx>= 0.0000 <Sy>= 0.0000 <Sz>= 0.5000 <S**2>= 0.7516 S= 0.5008
 <L.S>= 0.000000000000E+00
 Annihilation of the first spin contaminant:
 S**2 before annihilation     0.7516,   after     0.7500
 Keep R1 and R2 ints in memory in symmetry-blocked form, NReq=15602405.
 Gradient too large for Newton-Raphson -- use scaled steepest descent instead.
  Beta Gap=    -0.406 HL deriv= 4.02D-17 Rot set to   8.01D-01
     Minimum is close to point  2 DX=  7.10D-03 DF= -3.22D-05 DXR=  2.31D-02 DFR=  5.35D-04 which will be used.
 Gradient too large for Newton-Raphson -- use scaled steepest descent instead.
     Accept linear search using points  2 and  3.
 Gradient too large for Newton-Raphson -- use scaled steepest descent instead.
 Gradient too large for Newton-Raphson -- use scaled steepest descent instead.
 Gradient too large for Newton-Raphson -- use scaled steepest descent instead.
     Accept linear search using points  1 and  2.
 Gradient too large for Newton-Raphson -- use scaled steepest descent instead.
     Accept linear search using points  3 and  4.
     Minimum is close to point  4 DX= -5.79D-02 DF= -2.18D-06 DXR=  3.75D-02 DFR=  5.84D-04 which will be used.
 Gradient too large for Newton-Raphson -- use scaled steepest descent instead.
     Minimum is close to point  3 DX=  1.43D-02 DF= -8.07D-06 DXR=  4.55D-02 DFR=  2.08D-03 which will be used.
 Gradient too large for Newton-Raphson -- use scaled steepest descent instead.
     Minimum is close to point  5 DX= -9.39D-03 DF= -3.95D-08 DXR=  2.14D-03 DFR=  4.50D-06 which will be used.
 Gradient too large for Newton-Raphson -- use scaled steepest descent instead.
 Gradient too large for Newton-Raphson -- use scaled steepest descent instead.
 Gradient too large for Newton-Raphson -- use scaled steepest descent instead.
     Accept linear search using points  1 and  2.
 Gradient too large for Newton-Raphson -- use scaled steepest descent instead.
 Gradient too large for Newton-Raphson -- use scaled steepest descent instead.
     Accept linear search using points  1 and  2.
 Gradient too large for Newton-Raphson -- use scaled steepest descent instead.
 Gradient too large for Newton-Raphson -- use scaled steepest descent instead.
     Accept linear search using points  1 and  2.
 LinEq1:  Iter=  0 NonCon=     1 RMS=3.72D-04 Max=1.92D-02 NDo=     1
 AX will form     1 AO Fock derivatives at one time.
 LinEq1:  Iter=  1 NonCon=     1 RMS=2.31D-03 Max=7.57D-02 NDo=     1
 LinEq1:  Iter=  2 NonCon=     1 RMS=6.48D-04 Max=1.86D-02 NDo=     1
 LinEq1:  Iter=  3 NonCon=     1 RMS=8.19D-04 Max=3.17D-02 NDo=     1
 LinEq1:  Iter=  4 NonCon=     1 RMS=4.04D-04 Max=7.67D-03 NDo=     1
 LinEq1:  Iter=  5 NonCon=     1 RMS=1.90D-04 Max=3.29D-03 NDo=     1
 LinEq1:  Iter=  6 NonCon=     1 RMS=6.64D-05 Max=2.56D-03 NDo=     1
 LinEq1:  Iter=  7 NonCon=     1 RMS=2.26D-05 Max=5.21D-04 NDo=     1
 LinEq1:  Iter=  8 NonCon=     1 RMS=1.07D-05 Max=3.11D-04 NDo=     1
 LinEq1:  Iter=  9 NonCon=     1 RMS=7.04D-06 Max=1.14D-04 NDo=     1
 LinEq1:  Iter= 10 NonCon=     1 RMS=3.20D-06 Max=1.08D-04 NDo=     1
 LinEq1:  Iter= 11 NonCon=     1 RMS=1.13D-06 Max=3.58D-05 NDo=     1
 LinEq1:  Iter= 12 NonCon=     1 RMS=3.68D-07 Max=8.66D-06 NDo=     1
 LinEq1:  Iter= 13 NonCon=     1 RMS=8.93D-08 Max=1.74D-06 NDo=     1
 LinEq1:  Iter= 14 NonCon=     1 RMS=2.46D-08 Max=6.25D-07 NDo=     1
 LinEq1:  Iter= 15 NonCon=     1 RMS=1.15D-08 Max=4.23D-07 NDo=     1
 LinEq1:  Iter= 16 NonCon=     0 RMS=3.14D-09 Max=5.60D-08 NDo=     1
 Linear equations converged to 5.756D-09 5.756D-08 after    16 iterations.
     Accept linear search using points  1 and  2.
     Minimum is close to point  2 DX= -4.37D-03 DF= -9.29D-10 DXR=  4.39D-03 DFR=  1.93D-05 which will be used.
 LinEq1:  Iter=  0 NonCon=     1 RMS=3.03D-05 Max=1.74D-03 NDo=     1
 LinEq1:  Iter=  1 NonCon=     1 RMS=4.61D-05 Max=1.65D-03 NDo=     1
 LinEq1:  Iter=  2 NonCon=     1 RMS=5.76D-05 Max=1.99D-03 NDo=     1
 LinEq1:  Iter=  3 NonCon=     1 RMS=2.66D-05 Max=6.28D-04 NDo=     1
 LinEq1:  Iter=  4 NonCon=     1 RMS=1.26D-05 Max=2.73D-04 NDo=     1
 LinEq1:  Iter=  5 NonCon=     1 RMS=1.25D-05 Max=4.65D-04 NDo=     1
 LinEq1:  Iter=  6 NonCon=     1 RMS=5.18D-06 Max=1.07D-04 NDo=     1
 LinEq1:  Iter=  7 NonCon=     1 RMS=1.55D-06 Max=3.21D-05 NDo=     1
 LinEq1:  Iter=  8 NonCon=     1 RMS=4.84D-07 Max=1.77D-05 NDo=     1
 LinEq1:  Iter=  9 NonCon=     1 RMS=2.18D-07 Max=6.96D-06 NDo=     1
 LinEq1:  Iter= 10 NonCon=     1 RMS=5.10D-08 Max=7.71D-07 NDo=     1
 LinEq1:  Iter= 11 NonCon=     1 RMS=1.65D-08 Max=3.58D-07 NDo=     1
 LinEq1:  Iter= 12 NonCon=     1 RMS=3.78D-09 Max=1.13D-07 NDo=     1
 LinEq1:  Iter= 13 NonCon=     1 RMS=1.61D-09 Max=6.45D-08 NDo=     1
 LinEq1:  Iter= 14 NonCon=     1 RMS=5.65D-10 Max=1.18D-08 NDo=     1
 LinEq1:  Iter= 15 NonCon=     0 RMS=1.36D-10 Max=2.55D-09 NDo=     1
 Linear equations converged to 1.107D-09 1.107D-08 after    15 iterations.
     Minimum is close to point  2 DX=  1.41D-02 DF= -4.55D-13 DXR=  1.39D-02 DFR=  1.20D-04 which will be used.
 LinEq1:  Iter=  0 NonCon=     1 RMS=8.84D-08 Max=5.06D-06 NDo=     1
 LinEq1:  Iter=  1 NonCon=     1 RMS=1.38D-07 Max=6.48D-06 NDo=     1
 LinEq1:  Iter=  2 NonCon=     1 RMS=4.31D-08 Max=9.00D-07 NDo=     1
 LinEq1:  Iter=  3 NonCon=     1 RMS=2.34D-08 Max=4.78D-07 NDo=     1
 LinEq1:  Iter=  4 NonCon=     1 RMS=2.07D-08 Max=5.52D-07 NDo=     1
 LinEq1:  Iter=  5 NonCon=     1 RMS=1.26D-08 Max=4.17D-07 NDo=     1
 LinEq1:  Iter=  6 NonCon=     1 RMS=7.32D-09 Max=2.57D-07 NDo=     1
 LinEq1:  Iter=  7 NonCon=     1 RMS=7.62D-09 Max=1.92D-07 NDo=     1
 LinEq1:  Iter=  8 NonCon=     1 RMS=2.71D-09 Max=6.07D-08 NDo=     1
 LinEq1:  Iter=  9 NonCon=     1 RMS=9.98D-10 Max=3.90D-08 NDo=     1
 LinEq1:  Iter= 10 NonCon=     1 RMS=3.49D-10 Max=9.50D-09 NDo=     1
 LinEq1:  Iter= 11 NonCon=     1 RMS=1.30D-10 Max=2.58D-09 NDo=     1
 LinEq1:  Iter= 12 NonCon=     1 RMS=3.19D-11 Max=9.34D-10 NDo=     1
 LinEq1:  Iter= 13 NonCon=     1 RMS=8.34D-12 Max=1.66D-10 NDo=     1
 LinEq1:  Iter= 14 NonCon=     1 RMS=3.67D-12 Max=1.07D-10 NDo=     1
 LinEq1:  Iter= 15 NonCon=     0 RMS=1.10D-12 Max=2.25D-11 NDo=     1
 Linear equations converged to 6.019D-12 6.019D-11 after    15 iterations.
 Density matrix breaks symmetry, PCut= 1.00D-04
 Density matrix has no symmetry -- integrals replicated.
 Density matrix is not symmetric, so final MOs not symmetrized.
 SCF Done:  E(UB3LYP) =  -1792.49224947     a.u. after   19 cycles
            Convg  =    0.1166D-08                    96 Fock formations.
              S**2 =  0.7523                  -V/T =  2.0006
 <Sx>= 0.0000 <Sy>= 0.0000 <Sz>= 0.5000 <S**2>= 0.7523 S= 0.5012
 <L.S>= 0.000000000000E+00
 Annihilation of the first spin contaminant:
 S**2 before annihilation     0.7523,   after     0.7500

 **********************************************************************

            Population analysis using the SCF density.

 **********************************************************************

 Orbital symmetries:
 Alpha Orbitals:
       Occupied  (A') (A') (A") (A") (A") (A') (A') (A') (?A) (?A)
                 (?A) (A') (A') (A') (A") (A') (?B) (A') (A') (?B)
                 (?B) (?B) (?B) (?B)
       Virtual   (A') (A') (A') (A') (A") (A') (A') (A') (A') (A")
                 (A') (A") (A') (A') (A') (A") (A') (A') (?C) (?C)
                 (?C) (?C) (A') (A") (A') (A') (A') (A') (A') (A")
                 (A") (A") (A') (A') (A") (A') (A') (A') (A") (A')
                 (A') (?D) (?E) (?D) (?E) (?E) (?D) (?E) (A') (A")
                 (A') (A') (A") (A') (?F) (?F) (?F) (?F) (A') (?C)
                 (?C) (A') (A') (?C) (?C) (A') (A') (A') (A') (A')
 Beta  Orbitals:
       Occupied  (A') (A') (A") (A") (A") (A') (A') (A') (?A) (?A)
                 (?A) (A') (A') (A') (A") (A') (?B) (A') (?B) (?B)
                 (?B) (?B) (?B)
       Virtual   (?B) (A') (A') (A') (A') (A") (A') (A') (A') (A')
                 (A") (A') (A") (A') (A') (A') (A") (A') (A') (A")
                 (A') (?C) (?C) (?C) (A") (A') (A') (A') (A') (A')
                 (A") (A") (A") (A") (A') (A') (A') (A') (A") (A')
                 (A') (A') (?D) (?D) (?D) (?D) (?D) (?D) (?D) (A")
                 (A') (A') (A') (A") (A') (?E) (?E) (A") (A') (A')
                 (A") (A') (A') (A') (A") (A') (A') (A') (A') (A')
                 (A')
 Unable to determine electronic state:  an orbital has unidentified symmetry.
 Alpha  occ. eigenvalues -- -323.44685 -39.24132 -34.46823 -34.46711 -34.45172
 Alpha  occ. eigenvalues --  -19.57139 -19.57114  -4.77703  -3.28563  -3.28366
 Alpha  occ. eigenvalues --   -3.25220  -1.46101  -1.44876  -1.03914  -1.01657
 Alpha  occ. eigenvalues --   -0.86717  -0.80604  -0.78071  -0.76861  -0.75424
 Alpha  occ. eigenvalues --   -0.75354  -0.75285  -0.74617  -0.72918
 Alpha virt. eigenvalues --   -0.49998  -0.32532  -0.31085  -0.24335  -0.21281
 Alpha virt. eigenvalues --   -0.18548  -0.04871  -0.03207   0.04407   0.11675
 Alpha virt. eigenvalues --    0.28313   0.30252   0.33623   0.36390   0.43648
 Alpha virt. eigenvalues --    0.52340   0.67874   0.74034   0.82747   0.86532
 Alpha virt. eigenvalues --    0.99037   0.99045   1.01022   1.01545   1.21550
 Alpha virt. eigenvalues --    1.27785   1.53881   1.55275   1.72547   1.73124
 Alpha virt. eigenvalues --    2.27175   2.27830   2.35121   2.35267   2.36889
 Alpha virt. eigenvalues --    2.52887   2.69226   2.72543   2.72735   3.03164
 Alpha virt. eigenvalues --    3.03460   3.48107   3.48216   3.48430   3.49749
 Alpha virt. eigenvalues --    3.49811   3.50936   3.51373   4.26479   4.29025
 Alpha virt. eigenvalues --    4.34715   4.43790   4.64198   4.66660   6.70639
 Alpha virt. eigenvalues --    6.70713   6.70990   6.77801   6.83393   8.78949
 Alpha virt. eigenvalues --    8.86983   9.10090  31.49128  42.25201  42.31049
 Alpha virt. eigenvalues --   42.46337  49.26062  49.28943 183.55858 978.81418
  Beta  occ. eigenvalues -- -323.44685 -39.23019 -34.45618 -34.45490 -34.44892
  Beta  occ. eigenvalues --  -19.56962 -19.55695  -4.75413  -3.25277  -3.25101
  Beta  occ. eigenvalues --   -3.24471  -1.45697  -1.41257  -1.03797  -1.00669
  Beta  occ. eigenvalues --   -0.86427  -0.76785  -0.75338  -0.74437  -0.74202
  Beta  occ. eigenvalues --   -0.74121  -0.71935  -0.66106
  Beta virt. eigenvalues --   -0.63472  -0.49728  -0.32431  -0.30596  -0.24285
  Beta virt. eigenvalues --   -0.21019  -0.18433  -0.04822  -0.02865   0.04450
  Beta virt. eigenvalues --    0.11822   0.28618   0.30892   0.37029   0.38055
  Beta virt. eigenvalues --    0.43861   0.53041   0.68178   0.75922   0.84035
  Beta virt. eigenvalues --    0.86806   0.99420   0.99507   1.01589   1.04354
  Beta virt. eigenvalues --    1.21908   1.28541   1.54193   1.55379   1.72540
  Beta virt. eigenvalues --    1.73007   2.28366   2.31859   2.37457   2.39473
  Beta virt. eigenvalues --    2.39742   2.53491   2.69318   2.73491   2.73704
  Beta virt. eigenvalues --    3.03675   3.05262   3.49980   3.50119   3.50348
  Beta virt. eigenvalues --    3.50403   3.50972   3.51506   3.51871   4.29756
  Beta virt. eigenvalues --    4.32765   4.35954   4.43972   4.65462   4.66810
  Beta virt. eigenvalues --    6.71578   6.71629   6.75471   6.78732   6.84188
  Beta virt. eigenvalues --    8.80944   8.87500   9.12070  31.50611  42.26766
  Beta virt. eigenvalues --   42.31482  42.47909  49.27494  49.29121 183.56416
  Beta virt. eigenvalues --  978.81528
          Condensed to atoms (all electrons):
               1          2          3          4          5          6
     1  Cu  27.646000   0.004321   0.111459  -0.005308  -0.004754  -0.000190
     2  O    0.004321   8.056659  -0.000005  -0.000015   0.000374   0.249861
     3  O    0.111459  -0.000005   8.328394   0.243340   0.245430   0.000010
     4  H   -0.005308  -0.000015   0.243340   0.192736  -0.009199   0.000001
     5  H   -0.004754   0.000374   0.245430  -0.009199   0.204582  -0.000005
     6  H   -0.000190   0.249861   0.000010   0.000001  -0.000005   0.211934
     7  H   -0.000189   0.249863   0.000009   0.000001  -0.000006  -0.011118
               7
     1  Cu  -0.000189
     2  O    0.249863
     3  O    0.000009
     4  H    0.000001
     5  H   -0.000006
     6  H   -0.011118
     7  H    0.211935
          Atomic-Atomic Spin Densities.
               1          2          3          4          5          6
     1  Cu   0.420369  -0.000284  -0.007373   0.000048  -0.000019   0.000014
     2  O   -0.000284   0.577703   0.000000   0.000001  -0.000004  -0.006572
     3  O   -0.007373   0.000000   0.066816  -0.000475  -0.000431   0.000000
     4  H    0.000048   0.000001  -0.000475  -0.001547   0.000032   0.000000
     5  H   -0.000019  -0.000004  -0.000431   0.000032  -0.001623   0.000000
     6  H    0.000014  -0.006572   0.000000   0.000000   0.000000  -0.009840
     7  H    0.000014  -0.006574   0.000000   0.000000   0.000001   0.000600
               7
     1  Cu   0.000014
     2  O   -0.006574
     3  O    0.000000
     4  H    0.000000
     5  H    0.000001
     6  H    0.000600
     7  H   -0.009837
 Mulliken charges and spin densities:
               1          2
     1  Cu   1.248661   0.412770
     2  O   -0.561058   0.564270
     3  O   -0.928637   0.058539
     4  H    0.578444  -0.001940
     5  H    0.563578  -0.002045
     6  H    0.549507  -0.015798
     7  H    0.549505  -0.015796
 Sum of Mulliken charges =   2.00000   1.00000
 Mulliken charges and spin densities with hydrogens summed into heavy atoms:
               1          2
     1  Cu   1.248661   0.412770
     2  O    0.537954   0.532676
     3  O    0.213385   0.054554
 Electronic spatial extent (au):  <R**2>=            583.1100
 Charge=              2.0000 electrons
 Dipole moment (field-independent basis, Debye):
    X=             -1.9783    Y=             -3.5312    Z=             -0.0002  Tot=              4.0476
 Quadrupole moment (field-independent basis, Debye-Ang):
   XX=              3.0268   YY=             13.5331   ZZ=            -16.5538
   XY=             18.2372   XZ=             -0.0022   YZ=              0.0045
 Traceless Quadrupole moment (field-independent basis, Debye-Ang):
   XX=              3.0248   YY=             13.5311   ZZ=            -16.5558
   XY=             18.2372   XZ=             -0.0022   YZ=              0.0045
 Octapole moment (field-independent basis, Debye-Ang**2):
  XXX=              3.0461  YYY=            -52.1502  ZZZ=             -0.0021  XYY=            -46.0234
  XXY=            -22.6041  XXZ=             -0.0031  XZZ=            -10.5300  YZZ=             -5.9052
  YYZ=              0.0040  XYZ=              0.0021
 Hexadecapole moment (field-independent basis, Debye-Ang**3):
 XXXX=           -130.8784 YYYY=            -52.6833 ZZZZ=            -11.1714 XXXY=              0.0933
 XXXZ=             -0.0168 YYYX=             69.9604 YYYZ=              0.0144 ZZZX=             -0.0057
 ZZZY=              0.0029 XXYY=             37.2061 XXZZ=            -29.3784 YYZZ=            -14.6001
 XXYZ=              0.0004 YYXZ=             -0.0027 ZZXY=             -6.4005
 N-N= 1.464705933978D+02 E-N=-4.558437364163D+03  KE= 1.791496019165D+03
 Symmetry A'   KE= 1.565901769058D+03
 Symmetry A"   KE= 2.255942501070D+02
                          Isotropic Fermi Contact Couplings
        Atom                 a.u.       MegaHertz       Gauss      10(-4) cm-1
     1  Cu(63)            -0.13696    -162.44419     -57.96413     -54.18555
     2  O(17)              0.06225     -37.73746     -13.46566     -12.58786
     3  O(17)              0.01089      -6.59981      -2.35498      -2.20146
     4  H(1)              -0.00108      -4.80769      -1.71550      -1.60367
     5  H(1)              -0.00108      -4.82120      -1.72032      -1.60818
     6  H(1)              -0.00852     -38.07689     -13.58678     -12.70108
     7  H(1)              -0.00852     -38.07727     -13.58692     -12.70121
 --------------------------------------------------------
       Center         ----  Spin Dipole Couplings  ----
                      3XX-RR        3YY-RR        3ZZ-RR
 --------------------------------------------------------
     1   Atom        0.693771     -1.638115      0.944344
     2   Atom        1.443215     -0.340713     -1.102503
     3   Atom       -0.121512     -0.145913      0.267425
     4   Atom        0.007936      0.000706     -0.008642
     5   Atom       -0.003948      0.013290     -0.009342
     6   Atom       -0.033883     -0.046623      0.080506
     7   Atom       -0.033898     -0.046607      0.080505
 --------------------------------------------------------
                        XY            XZ            YZ
 --------------------------------------------------------
     1   Atom       -0.866322      0.017391      0.038521
     2   Atom       -1.397704      0.000832     -0.000457
     3   Atom       -0.007560      0.001780     -0.002617
     4   Atom        0.011833      0.000006     -0.000035
     5   Atom       -0.005371      0.000024      0.000140
     6   Atom       -0.010231     -0.024686     -0.045978
     7   Atom       -0.010241      0.024623      0.046012
 --------------------------------------------------------


 ---------------------------------------------------------------------------------
              Anisotropic Spin Dipole Couplings in Principal Axis System
 ---------------------------------------------------------------------------------

       Atom             a.u.   MegaHertz   Gauss  10(-4) cm-1        Axes

              Baa    -1.9253  -272.594   -97.268   -90.928  0.3141  0.9493 -0.0146
     1 Cu(63) Bbb     0.9444   133.712    47.712    44.602 -0.1110  0.0520  0.9925
              Bcc     0.9809   138.882    49.556    46.326  0.9429 -0.3101  0.1217
 
              Baa    -1.1068    80.088    28.577    26.715  0.4806  0.8769  0.0003
     2 O(17)  Bbb    -1.1025    79.776    28.466    26.611 -0.0004 -0.0001  1.0000
              Bcc     2.2093  -159.865   -57.044   -53.325  0.8769 -0.4806  0.0003
 
              Baa    -0.1481    10.715     3.823     3.574  0.2734  0.9619  0.0049
     3 O(17)  Bbb    -0.1194     8.638     3.082     2.881  0.9619 -0.2734 -0.0063
              Bcc     0.2675   -19.353    -6.905    -6.455  0.0047 -0.0064  1.0000
 
              Baa    -0.0086    -4.612    -1.646    -1.538 -0.0318  0.0441  0.9985
     4 H(1)   Bbb    -0.0081    -4.295    -1.533    -1.433 -0.5941  0.8026 -0.0543
              Bcc     0.0167     8.907     3.178     2.971  0.8038  0.5949 -0.0006
 
              Baa    -0.0093    -4.985    -1.779    -1.663 -0.0139 -0.0095  0.9999
     5 H(1)   Bbb    -0.0055    -2.926    -1.044    -0.976  0.9613  0.2749  0.0160
              Bcc     0.0148     7.911     2.823     2.639 -0.2750  0.9614  0.0053
 
              Baa    -0.0704   -37.538   -13.395   -12.521  0.4538  0.8290  0.3269
     6 H(1)   Bbb    -0.0282   -15.048    -5.369    -5.019  0.8777 -0.4792 -0.0033
              Bcc     0.0986    52.586    18.764    17.541 -0.1539 -0.2884  0.9451
 
              Baa    -0.0704   -37.538   -13.394   -12.521  0.4537  0.8290 -0.3269
     7 H(1)   Bbb    -0.0282   -15.048    -5.370    -5.019  0.8779 -0.4789  0.0038
              Bcc     0.0986    52.586    18.764    17.541  0.1534  0.2887  0.9450
 

 ---------------------------------------------------------------------------------

 Density matrix is not symmetric, so symmetry will not be used here.
 Density matrix is not symmetric, so symmetry will not be used here.
 Calling FoFJK, ICntrl=      2127 FMM=F ISym2X=0 I1Cent= 0 IOpClX= 1 NMat=1 NMatS=1 NMatT=0.
 ***** Axes restored to original set *****
 -------------------------------------------------------------------
 Center     Atomic                   Forces (Hartrees/Bohr)
 Number     Number              X              Y              Z
 -------------------------------------------------------------------
      1       29          -0.009625442    0.000022523   -0.003012414
      2        8           0.001556792   -0.000010358   -0.072997997
      3        8          -0.080136978   -0.000037415    0.017570483
      4        1           0.045202198   -0.000004081   -0.008528627
      5        1           0.045107936    0.000027872   -0.011420433
      6        1          -0.001060241    0.007676415    0.039193081
      7        1          -0.001044266   -0.007674956    0.039195908
 -------------------------------------------------------------------
 Cartesian Forces:  Max     0.080136978 RMS     0.030579410

 GradGradGradGradGradGradGradGradGradGradGradGradGradGradGradGradGradGrad
 Berny optimization.
 FormGI is forming the generalized inverse of G from B-inverse, IUseBI=4.
 Internal  Forces:  Max     0.052699647 RMS     0.020652097
 Search for a local minimum.
 Step number   1 out of a maximum of  100 on scan point     1 out of    26
 All quantities printed in internal units (Hartrees-Bohrs-Radians)
 Mixed Optimization -- RFO/linear search
 Second derivative matrix not updated -- first step.
 The second derivative matrix:
                          R1        R2        R3        R4        R5
           R1           0.00858
           R2           0.00000   0.19001
           R3           0.00000   0.00000   0.57681
           R4           0.00000   0.00000   0.00000   0.57681
           R5           0.00000   0.00000   0.00000   0.00000   0.57681
           R6           0.00000   0.00000   0.00000   0.00000   0.00000
           A1           0.00000   0.00000   0.00000   0.00000   0.00000
           A2           0.00000   0.00000   0.00000   0.00000   0.00000
           A3           0.00000   0.00000   0.00000   0.00000   0.00000
           A4           0.00000   0.00000   0.00000   0.00000   0.00000
           A5           0.00000   0.00000   0.00000   0.00000   0.00000
           A6           0.00000   0.00000   0.00000   0.00000   0.00000
           A7           0.00000   0.00000   0.00000   0.00000   0.00000
           D1           0.00000   0.00000   0.00000   0.00000   0.00000
           D2           0.00000   0.00000   0.00000   0.00000   0.00000
           D3           0.00000   0.00000   0.00000   0.00000   0.00000
           D4           0.00000   0.00000   0.00000   0.00000   0.00000
           D5           0.00000   0.00000   0.00000   0.00000   0.00000
           D6           0.00000   0.00000   0.00000   0.00000   0.00000
                          R6        A1        A2        A3        A4
           R6           0.57681
           A1           0.00000   0.25000
           A2           0.00000   0.00000   0.16000
           A3           0.00000   0.00000   0.00000   0.16000
           A4           0.00000   0.00000   0.00000   0.00000   0.16000
           A5           0.00000   0.00000   0.00000   0.00000   0.00000
           A6           0.00000   0.00000   0.00000   0.00000   0.00000
           A7           0.00000   0.00000   0.00000   0.00000   0.00000
           D1           0.00000   0.00000   0.00000   0.00000   0.00000
           D2           0.00000   0.00000   0.00000   0.00000   0.00000
           D3           0.00000   0.00000   0.00000   0.00000   0.00000
           D4           0.00000   0.00000   0.00000   0.00000   0.00000
           D5           0.00000   0.00000   0.00000   0.00000   0.00000
           D6           0.00000   0.00000   0.00000   0.00000   0.00000
                          A5        A6        A7        D1        D2
           A5           0.16000
           A6           0.00000   0.16000
           A7           0.00000   0.00000   0.16000
           D1           0.00000   0.00000   0.00000   0.00230
           D2           0.00000   0.00000   0.00000   0.00000   0.00230
           D3           0.00000   0.00000   0.00000   0.00000   0.00000
           D4           0.00000   0.00000   0.00000   0.00000   0.00000
           D5           0.00000   0.00000   0.00000   0.00000   0.00000
           D6           0.00000   0.00000   0.00000   0.00000   0.00000
                          D3        D4        D5        D6
           D3           0.03612
           D4           0.00000   0.03612
           D5           0.00000   0.00000   0.01690
           D6           0.00000   0.00000   0.00000   0.01690
 ITU=  0
     Eigenvalues ---    0.00230   0.01424   0.02039   0.03612   0.16000
     Eigenvalues ---    0.16000   0.16000   0.16000   0.19001   0.57681
     Eigenvalues ---    0.57681   0.57681   0.576811000.000001000.00000
     Eigenvalues --- 1000.000001000.000001000.000001000.00000
 RFO step:  Lambda=-3.66365395D-02 EMin= 2.30000000D-03
 Linear search not attempted -- first point.
 Maximum step size (   0.300) exceeded in Quadratic search.
    -- Step size scaled by   0.709
 Iteration  1 RMS(Cart)=  0.06722120 RMS(Int)=  0.00328322
 Iteration  2 RMS(Cart)=  0.00323686 RMS(Int)=  0.00026226
 Iteration  3 RMS(Cart)=  0.00000317 RMS(Int)=  0.00026223
 Iteration  4 RMS(Cart)=  0.00000000 RMS(Int)=  0.00026223
 Iteration  1 RMS(Cart)=  0.00000000 RMS(Int)=  0.00000000
 Variable       Old X    -DE/DX   Delta X   Delta X   Delta X     New X
                                 (Linear)    (Quad)   (Total)
    R1        7.34197   0.00540   0.00000   0.00000   0.00000   7.34197
    R2        3.56225   0.01042   0.00000   0.03260   0.03260   3.59485
    R3        1.79524   0.02030   0.00000   0.02347   0.02347   1.81871
    R4        1.79524   0.02030   0.00000   0.02347   0.02347   1.81871
    R5        1.79524   0.01585   0.00000   0.01832   0.01832   1.81356
    R6        1.79524   0.01225   0.00000   0.01416   0.01416   1.80940
    A1        1.74533   0.00516   0.00000   0.00000   0.00000   1.74533
    A2        1.91063   0.02058   0.00000   0.07422   0.07420   1.98483
    A3        1.91063   0.02059   0.00000   0.07424   0.07421   1.98485
    A4        2.46192  -0.04117   0.00000  -0.14846  -0.14847   2.31345
    A5        1.91063   0.02481   0.00000   0.08948   0.08948   2.00011
    A6        1.91063   0.02789   0.00000   0.10057   0.10057   2.01120
    A7        2.46192  -0.05270   0.00000  -0.19005  -0.19005   2.27187
    D1        1.57080   0.00034   0.00000   0.00473   0.00543   1.57623
    D2       -1.57080  -0.00031   0.00000  -0.00425  -0.00495  -1.57575
    D3        3.14159  -0.00002   0.00000  -0.00022  -0.00021   3.14138
    D4        0.00000  -0.00003   0.00000  -0.00031  -0.00032  -0.00032
    D5        3.14159  -0.00097   0.00000  -0.01347  -0.01290   3.12869
    D6        3.14159  -0.00001   0.00000  -0.00013  -0.00013   3.14147
         Item               Value     Threshold  Converged?
 Maximum Force            0.052700     0.000450     NO 
 RMS     Force            0.021758     0.000300     NO 
 Maximum Displacement     0.134592     0.001800     NO 
 RMS     Displacement     0.067835     0.001200     NO 
 Predicted change in Energy=-1.842086D-02
 GradGradGradGradGradGradGradGradGradGradGradGradGradGradGradGradGradGrad

                          Input orientation:                          
 ---------------------------------------------------------------------
 Center     Atomic      Atomic             Coordinates (Angstroms)
 Number     Number       Type             X           Y           Z
 ---------------------------------------------------------------------
      1         29           0       -0.040609    0.000178   -0.007762
      2          8           0       -0.015831   -0.000011    3.877362
      3          8           0        1.830661   -0.000038   -0.350036
      4          1           0        2.066611   -0.000204   -1.280276
      5          1           0        2.388022    0.000129    0.428512
      6          1           0       -0.018038    0.881058    4.264613
      7          1           0       -0.017836   -0.881112    4.264540
 ---------------------------------------------------------------------
                    Distance matrix (angstroms):
                    1          2          3          4          5
     1  Cu   0.000000
     2  O    3.885203   0.000000
     3  O    1.902315   4.613072   0.000000
     4  H    2.461639   5.562175   0.959697   0.000000
     5  H    2.467505   4.203935   0.957491   1.738753   0.000000
     6  H    4.362298   0.962419   5.048663   5.989004   4.613114
     7  H    4.362311   0.962419   5.048519   5.988814   4.613008
                    6          7
     6  H    0.000000
     7  H    1.762170   0.000000
 Stoichiometry    CuH4O2(2+,2)
 Framework group  C1[X(CuH4O2)]
 Deg. of freedom    15
 Full point group                 C1      NOp   1
 Omega: Change in point group or standard orientation.

 Old FWG=CS   [SG(Cu1H2O2),X(H2)]
 New FWG=C01  [X(Cu1H4O2)]
 Largest Abelian subgroup         C1      NOp   1
 Largest concise Abelian subgroup C1      NOp   1
                         Standard orientation:                         
 ---------------------------------------------------------------------
 Center     Atomic      Atomic             Coordinates (Angstroms)
 Number     Number       Type             X           Y           Z
 ---------------------------------------------------------------------
      1         29           0        0.647606    0.533264   -0.000002
      2          8           0       -3.164654   -0.216054   -0.000008
      3          8           0        1.333052   -1.241268    0.000005
      4          1           0        2.290981   -1.299488   -0.000175
      5          1           0        0.672184   -1.934118    0.000278
      6          1           0       -3.545496   -0.286030    0.881078
      7          1           0       -3.545424   -0.286451   -0.881092
 ---------------------------------------------------------------------
 Rotational constants (GHZ):     10.1052558      2.0446188      1.7186423
 Standard basis: 6-311G(d) (5D, 7F)
 There are   102 symmetry adapted cartesian basis functions of A   symmetry.
 There are    94 symmetry adapted basis functions of A   symmetry.
    94 basis functions,   165 primitive gaussians,   102 cartesian basis functions
    24 alpha electrons       23 beta electrons
       nuclear repulsion energy       145.0526550557 Hartrees.
 NAtoms=    7 NActive=    7 NUniq=    7 SFac= 1.00D+00 NAtFMM=   60 NAOKFM=F Big=F
 Integral buffers will be    131072 words long.
 Raffenetti 2 integral format.
 Two-electron integral symmetry is turned on.
 One-electron integrals computed using PRISM.
 NBasis=    94 RedAO= T EigKep=  9.37D-03  NBF=    94
 NBsUse=    94 1.00D-06 EigRej= -1.00D+00 NBFU=    94
 Initial guess from the checkpoint file:  "pescuh2o2.chk"
 B after Tr=     0.000000    0.000000    0.000000
         Rot=    0.902694    0.000012    0.000006    0.430284 Ang=  50.97 deg.
 Initial guess <Sx>= 0.0000 <Sy>= 0.0000 <Sz>= 0.5000 <S**2>= 0.7524 S= 0.5012
 ExpMin= 4.08D-02 ExpMax= 3.37D+05 ExpMxC= 1.14D+04 IAcc=2 IRadAn=         4 AccDes= 0.00D+00
 Harris functional with IExCor=  402 and IRadAn=       4 diagonalized for initial guess.
 HarFok:  IExCor=  402 AccDes= 0.00D+00 IRadAn=         4 IDoV= 1 UseB2=F ITyADJ=14
 ICtDFT=  3500011 ScaDFX=  1.000000  1.000000  1.000000  1.000000
 FoFCou: FMM=F IPFlag=           0 FMFlag=      100000 FMFlg1=           0
         NFxFlg=           0 DoJE=T BraDBF=F KetDBF=T FulRan=T
         wScrn=  0.000000 ICntrl=     500 IOpCl=  0 I1Cent=   200000004 NGrid=           0
         NMat0=    1 NMatS0=      1 NMatT0=    0 NMatD0=    1 NMtDS0=    0 NMtDT0=    0
 Petite list used in FoFCou.
 Keep R1 and R2 ints in memory in canonical form, NReq=21961702.
 Requested convergence on RMS density matrix=1.00D-08 within  64 cycles.
 Requested convergence on MAX density matrix=1.00D-06.
 Requested convergence on             energy=1.00D-06.
 No special actions if energy rises.
 EnCoef did     9 forward-backward iterations
 SCF Done:  E(UB3LYP) =  -1792.51549182     A.U. after   27 cycles
            NFock= 27  Conv=0.68D-08     -V/T= 2.0006
 <Sx>= 0.0000 <Sy>= 0.0000 <Sz>= 0.5000 <S**2>= 0.7523 S= 0.5012
 <L.S>= 0.000000000000E+00
 Annihilation of the first spin contaminant:
 S**2 before annihilation     0.7523,   after     0.7500
 QCSCF skips out because SCF is already converged.
 Calling FoFJK, ICntrl=      2127 FMM=F ISym2X=0 I1Cent= 0 IOpClX= 1 NMat=1 NMatS=1 NMatT=0.
 ***** Axes restored to original set *****
 -------------------------------------------------------------------
 Center     Atomic                   Forces (Hartrees/Bohr)
 Number     Number              X              Y              Z
 -------------------------------------------------------------------
      1       29          -0.002153297    0.000024602   -0.003414073
      2        8           0.001362312   -0.000007726   -0.057849271
      3        8          -0.060361642   -0.000031921    0.011469884
      4        1           0.032486062   -0.000008170    0.001251471
      5        1           0.030530895    0.000025215   -0.014283103
      6        1          -0.000939735   -0.003605265    0.031411188
      7        1          -0.000924594    0.003603265    0.031413904
 -------------------------------------------------------------------
 Cartesian Forces:  Max     0.060361642 RMS     0.023231796

 GradGradGradGradGradGradGradGradGradGradGradGradGradGradGradGradGradGrad
 Berny optimization.
 Using GEDIIS/GDIIS optimizer.
 FormGI is forming the generalized inverse of G from B-inverse, IUseBI=4.
 Internal  Forces:  Max     0.039234083 RMS     0.015641952
 Search for a local minimum.
 Step number   2 out of a maximum of  100 on scan point     1 out of    26
 All quantities printed in internal units (Hartrees-Bohrs-Radians)
 Mixed Optimization -- RFO/linear search
 Update second derivatives using D2CorX and points    1    2
 DE= -2.32D-02 DEPred=-1.84D-02 R= 1.26D+00
 TightC=F SS=  1.41D+00  RLast= 3.00D-01 DXNew= 5.0454D-01 9.0108D-01
 Trust test= 1.26D+00 RLast= 3.00D-01 DXMaxT set to 5.05D-01
 The second derivative matrix:
                          R1        R2        R3        R4        R5
           R1           0.00861
           R2           0.00058   0.19695
           R3           0.00086   0.00839   0.58519
           R4           0.00086   0.00839   0.00837   0.58518
           R5           0.00071   0.00722   0.00751   0.00751   0.58348
           R6           0.00048   0.00436   0.00402   0.00402   0.00368
           A1          -0.00005  -0.00083  -0.00122  -0.00122  -0.00101
           A2           0.00018  -0.00196  -0.00637  -0.00637  -0.00477
           A3           0.00018  -0.00197  -0.00638  -0.00638  -0.00478
           A4          -0.00036   0.00395   0.01277   0.01277   0.00957
           A5           0.00049   0.00215  -0.00103  -0.00103  -0.00024
           A6           0.00056   0.00251  -0.00103  -0.00103  -0.00017
           A7          -0.00106  -0.00466   0.00206   0.00206   0.00041
           D1          -0.00002  -0.00028  -0.00042  -0.00042  -0.00035
           D2           0.00002   0.00028   0.00042   0.00042   0.00035
           D3           0.00000   0.00000   0.00001   0.00001   0.00001
           D4           0.00000   0.00001   0.00002   0.00002   0.00002
           D5          -0.00001  -0.00011  -0.00010  -0.00010  -0.00010
           D6           0.00000   0.00000   0.00000   0.00000   0.00000
                          R6        A1        A2        A3        A4
           R6           0.57867
           A1          -0.00067   0.25007
           A2          -0.00405  -0.00025   0.15156
           A3          -0.00406  -0.00025  -0.00844   0.15156
           A4           0.00813   0.00051   0.01689   0.01689   0.12620
           A5          -0.00121  -0.00070  -0.00879  -0.00880   0.01761
           A6          -0.00130  -0.00080  -0.00985  -0.00986   0.01974
           A7           0.00251   0.00150   0.01864   0.01866  -0.03734
           D1          -0.00023   0.00002  -0.00009  -0.00009   0.00019
           D2           0.00023  -0.00002   0.00009   0.00009  -0.00019
           D3           0.00000   0.00000   0.00001   0.00001  -0.00001
           D4           0.00001   0.00000   0.00001   0.00001  -0.00002
           D5          -0.00005   0.00002   0.00011   0.00011  -0.00022
           D6           0.00000   0.00000   0.00000   0.00000   0.00000
                          A5        A6        A7        D1        D2
           A5           0.15322
           A6          -0.00754   0.15160
           A7           0.01432   0.01594   0.12974
           D1          -0.00025  -0.00028   0.00053   0.00231
           D2           0.00025   0.00028  -0.00052  -0.00001   0.00231
           D3           0.00001   0.00001  -0.00002   0.00000   0.00000
           D4           0.00002   0.00002  -0.00004   0.00000   0.00000
           D5           0.00003   0.00004  -0.00007   0.00001  -0.00001
           D6           0.00000   0.00000   0.00000   0.00000   0.00000
                          D3        D4        D5        D6
           D3           0.03612
           D4           0.00000   0.03612
           D5           0.00000   0.00000   0.01690
           D6           0.00000   0.00000   0.00000   0.01690
 ITU=  1  0
 Use linear search instead of GDIIS.
 Linear search step of   0.600 exceeds DXMaxT=   0.505 but not scaled.
 Quartic linear search produced a step of  2.00000.
 Iteration  1 RMS(Cart)=  0.10335818 RMS(Int)=  0.04132394
 Iteration  2 RMS(Cart)=  0.04059831 RMS(Int)=  0.00185520
 Iteration  3 RMS(Cart)=  0.00121612 RMS(Int)=  0.00131440
 Iteration  4 RMS(Cart)=  0.00000059 RMS(Int)=  0.00131440
 Iteration  1 RMS(Cart)=  0.00000000 RMS(Int)=  0.00000000
 Variable       Old X    -DE/DX   Delta X   Delta X   Delta X     New X
                                 (Linear)    (Quad)   (Total)
    R1        7.34197   0.00494   0.00000   0.00000   0.00000   7.34197
    R2        3.59485   0.00296   0.06521   0.00000   0.06521   3.66006
    R3        1.81871   0.00934   0.04694   0.00000   0.04694   1.86565
    R4        1.81871   0.00934   0.04694   0.00000   0.04694   1.86564
    R5        1.81356   0.00677   0.03665   0.00000   0.03665   1.85021
    R6        1.80940   0.00618   0.02831   0.00000   0.02831   1.83771
    A1        1.74533   0.00581   0.00000   0.00000   0.00000   1.74533
    A2        1.98483   0.01830   0.14839   0.00000   0.14827   2.13310
    A3        1.98485   0.01831   0.14843   0.00000   0.14823   2.13307
    A4        2.31345  -0.03662  -0.29694   0.00000  -0.29700   2.01645
    A5        2.00011   0.01850   0.17896   0.00000   0.17896   2.17907
    A6        2.01120   0.02073   0.20114   0.00000   0.20114   2.21234
    A7        2.27187  -0.03923  -0.38010   0.00000  -0.38010   1.89178
    D1        1.57623   0.00055   0.01086   0.00000   0.01409   1.59032
    D2       -1.57575  -0.00053  -0.00991   0.00000  -0.01314  -1.58889
    D3        3.14138  -0.00002  -0.00042   0.00000  -0.00038   3.14101
    D4       -0.00032  -0.00004  -0.00063   0.00000  -0.00067  -0.00098
    D5        3.12869  -0.00081  -0.02581   0.00000  -0.02236   3.10633
    D6        3.14147  -0.00001  -0.00025   0.00000  -0.00021   3.14126
         Item               Value     Threshold  Converged?
 Maximum Force            0.039234     0.000450     NO 
 RMS     Force            0.016433     0.000300     NO 
 Maximum Displacement     0.317806     0.001800     NO 
 RMS     Displacement     0.139421     0.001200     NO 
 Predicted change in Energy=-2.849141D-02
 GradGradGradGradGradGradGradGradGradGradGradGradGradGradGradGradGradGrad

                          Input orientation:                          
 ---------------------------------------------------------------------
 Center     Atomic      Atomic             Coordinates (Angstroms)
 Number     Number       Type             X           Y           Z
 ---------------------------------------------------------------------
      1         29           0       -0.117781    0.000522   -0.022128
      2          8           0       -0.047405   -0.000003    3.862438
      3          8           0        1.783211   -0.000094   -0.392949
      4          1           0        2.178531   -0.000588   -1.288682
      5          1           0        2.503574    0.000337    0.260337
      6          1           0       -0.053882    0.835019    4.389099
      7          1           0       -0.053268   -0.835194    4.388839
 ---------------------------------------------------------------------
                    Distance matrix (angstroms):
                    1          2          3          4          5
     1  Cu   0.000000
     2  O    3.885203   0.000000
     3  O    1.936822   4.632437   0.000000
     4  H    2.622444   5.611491   0.979090   0.000000
     5  H    2.636529   4.413913   0.972473   1.582755   0.000000
     6  H    4.489921   0.987257   5.190405   6.157850   4.927875
     7  H    4.489901   0.987256   5.189946   6.157251   4.927482
                    6          7
     6  H    0.000000
     7  H    1.670213   0.000000
 Stoichiometry    CuH4O2(2+,2)
 Framework group  C1[X(CuH4O2)]
 Deg. of freedom    15
 Full point group                 C1      NOp   1
 Largest Abelian subgroup         C1      NOp   1
 Largest concise Abelian subgroup C1      NOp   1
                         Standard orientation:                         
 ---------------------------------------------------------------------
 Center     Atomic      Atomic             Coordinates (Angstroms)
 Number     Number       Type             X           Y           Z
 ---------------------------------------------------------------------
      1         29           0        0.642050    0.553604   -0.000005
      2          8           0       -3.161979   -0.236438   -0.000017
      3          8           0        1.359211   -1.245552    0.000004
      4          1           0        2.312748   -1.467777   -0.000463
      5          1           0        0.850957   -2.074636    0.000772
      6          1           0       -3.680645   -0.327501    0.835070
      7          1           0       -3.680373   -0.328674   -0.835143
 ---------------------------------------------------------------------
 Rotational constants (GHZ):      9.6142750      2.0233269      1.6872384
 Standard basis: 6-311G(d) (5D, 7F)
 There are   102 symmetry adapted cartesian basis functions of A   symmetry.
 There are    94 symmetry adapted basis functions of A   symmetry.
    94 basis functions,   165 primitive gaussians,   102 cartesian basis functions
    24 alpha electrons       23 beta electrons
       nuclear repulsion energy       142.4410799566 Hartrees.
 NAtoms=    7 NActive=    7 NUniq=    7 SFac= 1.00D+00 NAtFMM=   60 NAOKFM=F Big=F
 Integral buffers will be    131072 words long.
 Raffenetti 2 integral format.
 Two-electron integral symmetry is turned on.
 One-electron integrals computed using PRISM.
 NBasis=    94 RedAO= T EigKep=  9.37D-03  NBF=    94
 NBsUse=    94 1.00D-06 EigRej= -1.00D+00 NBFU=    94
 Initial guess from the checkpoint file:  "pescuh2o2.chk"
 B after Tr=     0.000000    0.000000    0.000000
         Rot=    0.999992    0.000022    0.000001   -0.003964 Ang=   0.45 deg.
 Initial guess <Sx>= 0.0000 <Sy>= 0.0000 <Sz>= 0.5000 <S**2>= 0.7523 S= 0.5012
 ExpMin= 4.08D-02 ExpMax= 3.37D+05 ExpMxC= 1.14D+04 IAcc=2 IRadAn=         4 AccDes= 0.00D+00
 Harris functional with IExCor=  402 and IRadAn=       4 diagonalized for initial guess.
 HarFok:  IExCor=  402 AccDes= 0.00D+00 IRadAn=         4 IDoV= 1 UseB2=F ITyADJ=14
 ICtDFT=  3500011 ScaDFX=  1.000000  1.000000  1.000000  1.000000
 FoFCou: FMM=F IPFlag=           0 FMFlag=      100000 FMFlg1=           0
         NFxFlg=           0 DoJE=T BraDBF=F KetDBF=T FulRan=T
         wScrn=  0.000000 ICntrl=     500 IOpCl=  0 I1Cent=   200000004 NGrid=           0
         NMat0=    1 NMatS0=      1 NMatT0=    0 NMatD0=    1 NMtDS0=    0 NMtDT0=    0
 Petite list used in FoFCou.
 Keep R1 and R2 ints in memory in canonical form, NReq=21961462.
 Requested convergence on RMS density matrix=1.00D-08 within  64 cycles.
 Requested convergence on MAX density matrix=1.00D-06.
 Requested convergence on             energy=1.00D-06.
 No special actions if energy rises.
 SCF Done:  E(UB3LYP) =  -1792.53970089     A.U. after   24 cycles
            NFock= 24  Conv=0.54D-08     -V/T= 2.0007
 <Sx>= 0.0000 <Sy>= 0.0000 <Sz>= 0.5000 <S**2>= 0.7523 S= 0.5012
 <L.S>= 0.000000000000E+00
 Annihilation of the first spin contaminant:
 S**2 before annihilation     0.7523,   after     0.7500
 QCSCF skips out because SCF is already converged.
 Calling FoFJK, ICntrl=      2127 FMM=F ISym2X=0 I1Cent= 0 IOpClX= 1 NMat=1 NMatS=1 NMatT=0.
 ***** Axes restored to original set *****
 -------------------------------------------------------------------
 Center     Atomic                   Forces (Hartrees/Bohr)
 Number     Number              X              Y              Z
 -------------------------------------------------------------------
      1       29           0.008671013    0.000027062   -0.004891664
      2        8           0.000442123   -0.000009359   -0.008436118
      3        8          -0.004282104   -0.000044463   -0.003420621
      4        1          -0.002626870   -0.000006337    0.006263203
      5        1          -0.001314565    0.000034832   -0.002411330
      6        1          -0.000447742   -0.014198156    0.006444970
      7        1          -0.000441855    0.014196421    0.006451560
 -------------------------------------------------------------------
 Cartesian Forces:  Max     0.014198156 RMS     0.005939666

 GradGradGradGradGradGradGradGradGradGradGradGradGradGradGradGradGradGrad
 Berny optimization.
 Using GEDIIS/GDIIS optimizer.
 FormGI is forming the generalized inverse of G from B-inverse, IUseBI=4.
 Internal  Forces:  Max     0.016189149 RMS     0.006105878
 Search for a local minimum.
 Step number   3 out of a maximum of  100 on scan point     1 out of    26
 All quantities printed in internal units (Hartrees-Bohrs-Radians)
 Mixed Optimization -- RFO/linear search
 Update second derivatives using D2CorX and points    2    3
 The second derivative matrix:
                          R1        R2        R3        R4        R5
           R1           0.00858
           R2           0.00017   0.19103
           R3           0.00027   0.00023   0.57405
           R4           0.00027   0.00023  -0.00277   0.57405
           R5           0.00021   0.00004  -0.00238  -0.00238   0.57478
           R6           0.00013  -0.00052  -0.00274  -0.00274  -0.00225
           A1           0.00001   0.00015   0.00024   0.00024   0.00018
           A2           0.00016  -0.00156  -0.00527  -0.00527  -0.00424
           A3           0.00016  -0.00155  -0.00527  -0.00527  -0.00424
           A4          -0.00031   0.00316   0.01061   0.01061   0.00854
           A5           0.00029   0.00021  -0.00297  -0.00297  -0.00255
           A6           0.00030  -0.00023  -0.00410  -0.00410  -0.00345
           A7          -0.00059   0.00002   0.00707   0.00707   0.00600
           D1           0.00000   0.00001   0.00002   0.00002   0.00001
           D2           0.00000  -0.00001  -0.00002  -0.00002  -0.00001
           D3           0.00000   0.00000   0.00001   0.00001   0.00001
           D4           0.00000   0.00001   0.00001   0.00001   0.00001
           D5          -0.00001  -0.00007  -0.00005  -0.00005  -0.00004
           D6           0.00000   0.00000   0.00000   0.00000   0.00000
                          R6        A1        A2        A3        A4
           R6           0.57463
           A1           0.00012   0.25001
           A2          -0.00379   0.00014   0.15373
           A3          -0.00379   0.00014  -0.00627   0.15373
           A4           0.00762  -0.00028   0.01256   0.01256   0.13484
           A5          -0.00292   0.00025  -0.00561  -0.00561   0.01127
           A6          -0.00365   0.00027  -0.00674  -0.00674   0.01353
           A7           0.00657  -0.00052   0.01235   0.01235  -0.02480
           D1           0.00001   0.00000   0.00001   0.00001  -0.00002
           D2          -0.00001   0.00000  -0.00001  -0.00001   0.00002
           D3           0.00000   0.00000   0.00001   0.00001  -0.00001
           D4           0.00001   0.00000   0.00001   0.00001  -0.00002
           D5          -0.00001   0.00000   0.00005   0.00005  -0.00010
           D6           0.00000   0.00000   0.00000   0.00000  -0.00001
                          A5        A6        A7        D1        D2
           A5           0.15681
           A6          -0.00439   0.15423
           A7           0.00757   0.01016   0.14227
           D1           0.00002   0.00002  -0.00004   0.00230
           D2          -0.00002  -0.00002   0.00005   0.00000   0.00230
           D3           0.00001   0.00001  -0.00002   0.00000   0.00000
           D4           0.00002   0.00002  -0.00003   0.00000   0.00000
           D5          -0.00003  -0.00002   0.00005   0.00000   0.00000
           D6           0.00000   0.00000  -0.00001   0.00000   0.00000
                          D3        D4        D5        D6
           D3           0.03612
           D4           0.00000   0.03612
           D5           0.00000   0.00000   0.01690
           D6           0.00000   0.00000   0.00000   0.01690
 ITU=  0  1  0
 Use linear search instead of GDIIS.
     Eigenvalues ---    0.00230   0.01164   0.02482   0.03612   0.08842
     Eigenvalues ---    0.15999   0.16000   0.16518   0.19135   0.56838
     Eigenvalues ---    0.57681   0.57681   0.577201000.000001000.00000
     Eigenvalues --- 1000.000001000.000001000.000001000.00000
 RFO step:  Lambda=-2.86795143D-03 EMin= 2.29999995D-03
 Quartic linear search produced a step of  0.14112.
 Iteration  1 RMS(Cart)=  0.03635129 RMS(Int)=  0.00149308
 Iteration  2 RMS(Cart)=  0.00125856 RMS(Int)=  0.00058454
 Iteration  3 RMS(Cart)=  0.00000024 RMS(Int)=  0.00058454
 Iteration  1 RMS(Cart)=  0.00000000 RMS(Int)=  0.00000000
 Variable       Old X    -DE/DX   Delta X   Delta X   Delta X     New X
                                 (Linear)    (Quad)   (Total)
    R1        7.34197   0.00442   0.00000   0.00000   0.00000   7.34197
    R2        3.66006  -0.00809   0.00920  -0.04869  -0.03949   3.62057
    R3        1.86565  -0.00857   0.00662  -0.01768  -0.01105   1.85459
    R4        1.86564  -0.00857   0.00662  -0.01768  -0.01105   1.85459
    R5        1.85021  -0.00679   0.00517  -0.01387  -0.00870   1.84152
    R6        1.83771  -0.00257   0.00400  -0.00568  -0.00168   1.83602
    A1        1.74533   0.00535   0.00000   0.00000   0.00000   1.74533
    A2        2.13310   0.00808   0.02092   0.04291   0.06363   2.19674
    A3        2.13307   0.00809   0.02092   0.04306   0.06369   2.19677
    A4        2.01645  -0.01619  -0.04191  -0.08707  -0.12914   1.88731
    A5        2.17907  -0.00035   0.02525  -0.01541   0.00984   2.18891
    A6        2.21234   0.00100   0.02838  -0.00750   0.02088   2.23322
    A7        1.89178  -0.00065  -0.05364   0.02292  -0.03072   1.86105
    D1        1.59032   0.00048   0.00199   0.02158   0.02493   1.61525
    D2       -1.58889  -0.00046  -0.00185  -0.01711  -0.02033  -1.60921
    D3        3.14101  -0.00003  -0.00005  -0.00058  -0.00063   3.14038
    D4       -0.00098  -0.00004  -0.00009  -0.00117  -0.00127  -0.00225
    D5        3.10633  -0.00043  -0.00316  -0.03384  -0.03538   3.07095
    D6        3.14126  -0.00001  -0.00003  -0.00050  -0.00052   3.14074
         Item               Value     Threshold  Converged?
 Maximum Force            0.016189     0.000450     NO 
 RMS     Force            0.006232     0.000300     NO 
 Maximum Displacement     0.076675     0.001800     NO 
 RMS     Displacement     0.036547     0.001200     NO 
 Predicted change in Energy=-2.026735D-03
 GradGradGradGradGradGradGradGradGradGradGradGradGradGradGradGradGradGrad

                          Input orientation:                          
 ---------------------------------------------------------------------
 Center     Atomic      Atomic             Coordinates (Angstroms)
 Number     Number       Type             X           Y           Z
 ---------------------------------------------------------------------
      1         29           0       -0.103925    0.001621   -0.038676
      2          8           0       -0.041160    0.000076    3.846019
      3          8           0        1.777270   -0.000298   -0.401812
      4          1           0        2.181225   -0.001369   -1.288631
      5          1           0        2.509193    0.000385    0.237140
      6          1           0       -0.066343    0.794445    4.421785
      7          1           0       -0.063281   -0.794860    4.421128
 ---------------------------------------------------------------------
                    Distance matrix (angstroms):
                    1          2          3          4          5
     1  Cu   0.000000
     2  O    3.885203   0.000000
     3  O    1.915925   4.620688   0.000000
     4  H    2.604670   5.594965   0.974489   0.000000
     5  H    2.627634   4.419084   0.971581   1.560622   0.000000
     6  H    4.530529   0.981408   5.224712   6.188193   4.977466
     7  H    4.530550   0.981408   5.222997   6.186176   4.975519
                    6          7
     6  H    0.000000
     7  H    1.589307   0.000000
 Stoichiometry    CuH4O2(2+,2)
 Framework group  C1[X(CuH4O2)]
 Deg. of freedom    15
 Full point group                 C1      NOp   1
 Largest Abelian subgroup         C1      NOp   1
 Largest concise Abelian subgroup C1      NOp   1
                         Standard orientation:                         
 ---------------------------------------------------------------------
 Center     Atomic      Atomic             Coordinates (Angstroms)
 Number     Number       Type             X           Y           Z
 ---------------------------------------------------------------------
      1         29           0        0.646968    0.547981   -0.000042
      2          8           0       -3.159177   -0.231804   -0.000016
      3          8           0        1.351591   -1.233668    0.000072
      4          1           0        2.297799   -1.466731   -0.000875
      5          1           0        0.858950   -2.071088    0.001846
      6          1           0       -3.729543   -0.312529    0.794545
      7          1           0       -3.728594   -0.317334   -0.794754
 ---------------------------------------------------------------------
 Rotational constants (GHZ):      9.8115232      2.0208665      1.6899853
 Standard basis: 6-311G(d) (5D, 7F)
 There are   102 symmetry adapted cartesian basis functions of A   symmetry.
 There are    94 symmetry adapted basis functions of A   symmetry.
    94 basis functions,   165 primitive gaussians,   102 cartesian basis functions
    24 alpha electrons       23 beta electrons
       nuclear repulsion energy       143.2334286653 Hartrees.
 NAtoms=    7 NActive=    7 NUniq=    7 SFac= 1.00D+00 NAtFMM=   60 NAOKFM=F Big=F
 Integral buffers will be    131072 words long.
 Raffenetti 2 integral format.
 Two-electron integral symmetry is turned on.
 One-electron integrals computed using PRISM.
 NBasis=    94 RedAO= T EigKep=  9.37D-03  NBF=    94
 NBsUse=    94 1.00D-06 EigRej= -1.00D+00 NBFU=    94
 Initial guess from the checkpoint file:  "pescuh2o2.chk"
 B after Tr=     0.000000    0.000000    0.000000
         Rot=    0.999999    0.000101    0.000004    0.001102 Ang=   0.13 deg.
 Initial guess <Sx>= 0.0000 <Sy>= 0.0000 <Sz>= 0.5000 <S**2>= 0.7523 S= 0.5011
 ExpMin= 4.08D-02 ExpMax= 3.37D+05 ExpMxC= 1.14D+04 IAcc=2 IRadAn=         4 AccDes= 0.00D+00
 Harris functional with IExCor=  402 and IRadAn=       4 diagonalized for initial guess.
 HarFok:  IExCor=  402 AccDes= 0.00D+00 IRadAn=         4 IDoV= 1 UseB2=F ITyADJ=14
 ICtDFT=  3500011 ScaDFX=  1.000000  1.000000  1.000000  1.000000
 FoFCou: FMM=F IPFlag=           0 FMFlag=      100000 FMFlg1=           0
         NFxFlg=           0 DoJE=T BraDBF=F KetDBF=T FulRan=T
         wScrn=  0.000000 ICntrl=     500 IOpCl=  0 I1Cent=   200000004 NGrid=           0
         NMat0=    1 NMatS0=      1 NMatT0=    0 NMatD0=    1 NMtDS0=    0 NMtDT0=    0
 Petite list used in FoFCou.
 Keep R1 and R2 ints in memory in canonical form, NReq=21961506.
 Requested convergence on RMS density matrix=1.00D-08 within  64 cycles.
 Requested convergence on MAX density matrix=1.00D-06.
 Requested convergence on             energy=1.00D-06.
 No special actions if energy rises.
 EnCoef did    16 forward-backward iterations
 SCF Done:  E(UB3LYP) =  -1792.54189904     A.U. after   23 cycles
            NFock= 23  Conv=0.44D-08     -V/T= 2.0007
 <Sx>= 0.0000 <Sy>= 0.0000 <Sz>= 0.5000 <S**2>= 0.7523 S= 0.5011
 <L.S>= 0.000000000000E+00
 Annihilation of the first spin contaminant:
 S**2 before annihilation     0.7523,   after     0.7500
 QCSCF skips out because SCF is already converged.
 Calling FoFJK, ICntrl=      2127 FMM=F ISym2X=0 I1Cent= 0 IOpClX= 1 NMat=1 NMatS=1 NMatT=0.
 ***** Axes restored to original set *****
 -------------------------------------------------------------------
 Center     Atomic                   Forces (Hartrees/Bohr)
 Number     Number              X              Y              Z
 -------------------------------------------------------------------
      1       29           0.004977368    0.000035185   -0.003726647
      2        8          -0.000138651   -0.000014041    0.002161965
      3        8           0.000852130   -0.000076330   -0.002260711
      4        1          -0.003222442   -0.000000696    0.000295075
      5        1          -0.002111845    0.000055193    0.001416064
      6        1          -0.000182690   -0.001916182    0.001055372
      7        1          -0.000173869    0.001916871    0.001058882
 -------------------------------------------------------------------
 Cartesian Forces:  Max     0.004977368 RMS     0.001899672

 GradGradGradGradGradGradGradGradGradGradGradGradGradGradGradGradGradGrad
 Berny optimization.
 Using GEDIIS/GDIIS optimizer.
 FormGI is forming the generalized inverse of G from B-inverse, IUseBI=4.
 Internal  Forces:  Max     0.005348559 RMS     0.002218426
 Search for a local minimum.
 Step number   4 out of a maximum of  100 on scan point     1 out of    26
 All quantities printed in internal units (Hartrees-Bohrs-Radians)
 Mixed Optimization -- RFO/linear search
 Update second derivatives using D2CorX and points    3    4
 DE= -2.20D-03 DEPred=-2.03D-03 R= 1.08D+00
 TightC=F SS=  1.41D+00  RLast= 1.74D-01 DXNew= 8.4853D-01 5.2333D-01
 Trust test= 1.08D+00 RLast= 1.74D-01 DXMaxT set to 5.23D-01
 The second derivative matrix:
                          R1        R2        R3        R4        R5
           R1           0.00859
           R2           0.00011   0.17657
           R3           0.00000  -0.01091   0.57055
           R4           0.00000  -0.01092  -0.00627   0.57054
           R5           0.00004  -0.00982  -0.00719  -0.00720   0.56958
           R6           0.00007  -0.00438  -0.00472  -0.00472  -0.00434
           A1           0.00001   0.00029   0.00039   0.00039   0.00030
           A2           0.00041   0.00754  -0.00311  -0.00311  -0.00069
           A3           0.00041   0.00757  -0.00308  -0.00307  -0.00066
           A4          -0.00081  -0.01572   0.00557   0.00556   0.00086
           A5           0.00040  -0.00366  -0.00876  -0.00876  -0.00673
           A6           0.00043  -0.00208  -0.00860  -0.00860  -0.00639
           A7          -0.00082   0.00574   0.01736   0.01736   0.01312
           D1           0.00002  -0.00020  -0.00053  -0.00053  -0.00034
           D2          -0.00002   0.00022   0.00055   0.00055   0.00036
           D3           0.00000  -0.00004  -0.00004  -0.00004  -0.00003
           D4           0.00000  -0.00010  -0.00012  -0.00012  -0.00009
           D5          -0.00001  -0.00112  -0.00090  -0.00090  -0.00078
           D6           0.00000  -0.00003  -0.00005  -0.00005  -0.00003
                          R6        A1        A2        A3        A4
           R6           0.57380
           A1           0.00016   0.25001
           A2          -0.00231   0.00001   0.15263
           A3          -0.00230   0.00001  -0.00740   0.15258
           A4           0.00443  -0.00001   0.01538   0.01543   0.12794
           A5          -0.00450   0.00027  -0.00049  -0.00049   0.00096
           A6          -0.00475   0.00026  -0.00265  -0.00265   0.00538
           A7           0.00924  -0.00053   0.00314   0.00314  -0.00634
           D1          -0.00012   0.00000   0.00051   0.00051  -0.00101
           D2           0.00013   0.00000  -0.00053  -0.00052   0.00105
           D3          -0.00001   0.00000   0.00005   0.00005  -0.00009
           D4          -0.00003   0.00000   0.00012   0.00012  -0.00025
           D5          -0.00030   0.00001   0.00075   0.00075  -0.00154
           D6          -0.00001   0.00000   0.00005   0.00005  -0.00009
                          A5        A6        A7        D1        D2
           A5           0.15733
           A6          -0.00318   0.15585
           A7           0.00585   0.00734   0.14681
           D1           0.00018   0.00023  -0.00041   0.00233
           D2          -0.00018  -0.00023   0.00040  -0.00003   0.00233
           D3           0.00000   0.00001  -0.00001   0.00000   0.00000
           D4           0.00001   0.00003  -0.00004   0.00000   0.00000
           D5          -0.00029  -0.00013   0.00042  -0.00001   0.00001
           D6           0.00001   0.00001  -0.00002   0.00000   0.00000
                          D3        D4        D5        D6
           D3           0.03612
           D4           0.00000   0.03612
           D5           0.00000  -0.00001   0.01682
           D6           0.00000   0.00000   0.00000   0.01690
 ITU=  1  0  1  0
 Use linear search instead of GDIIS.
     Eigenvalues ---    0.00230   0.01106   0.02506   0.03612   0.10555
     Eigenvalues ---    0.13647   0.15992   0.16009   0.18343   0.55742
     Eigenvalues ---    0.57654   0.57681   0.577961000.000001000.00000
     Eigenvalues --- 1000.000001000.000001000.000001000.00000
 RFO step:  Lambda=-2.51806600D-04 EMin= 2.29997123D-03
 Quartic linear search produced a step of  0.15314.
 Iteration  1 RMS(Cart)=  0.01183724 RMS(Int)=  0.00014490
 Iteration  2 RMS(Cart)=  0.00008140 RMS(Int)=  0.00011465
 Iteration  3 RMS(Cart)=  0.00000000 RMS(Int)=  0.00011465
 Iteration  1 RMS(Cart)=  0.00000000 RMS(Int)=  0.00000000
 Variable       Old X    -DE/DX   Delta X   Delta X   Delta X     New X
                                 (Linear)    (Quad)   (Total)
    R1        7.34197   0.00423   0.00000   0.00000   0.00000   7.34197
    R2        3.62057  -0.00422  -0.00605  -0.02223  -0.02827   3.59230
    R3        1.85459  -0.00093  -0.00169  -0.00135  -0.00304   1.85155
    R4        1.85459  -0.00094  -0.00169  -0.00135  -0.00304   1.85155
    R5        1.84152  -0.00160  -0.00133  -0.00283  -0.00416   1.83736
    R6        1.83602  -0.00063  -0.00026  -0.00147  -0.00173   1.83429
    A1        1.74533   0.00535   0.00000   0.00000   0.00000   1.74533
    A2        2.19674   0.00120   0.00975   0.00044   0.01010   2.20684
    A3        2.19677   0.00122   0.00975   0.00058   0.01023   2.20699
    A4        1.88731  -0.00244  -0.01978  -0.00195  -0.02180   1.86551
    A5        2.18891  -0.00189   0.00151  -0.01577  -0.01427   2.17465
    A6        2.23322  -0.00131   0.00320  -0.01314  -0.00994   2.22328
    A7        1.86105   0.00320  -0.00470   0.02891   0.02421   1.88526
    D1        1.61525   0.00019   0.00382   0.01169   0.01576   1.63101
    D2       -1.60921  -0.00017  -0.00311  -0.00472  -0.00809  -1.61730
    D3        3.14038  -0.00002  -0.00010  -0.00047  -0.00057   3.13980
[...]
           A3         123.31290 122.73001 122.18431 121.71967 121.48559
           A4         107.04120 107.17389 107.33687 107.52392 107.75762
           A5         124.44599 124.47889 124.53506 124.58724 124.68569
           A6         124.44543 124.47982 124.53257 124.59030 124.68617
           A7         108.85644 108.92919 109.01479 109.10321 109.20875
           D1          74.18325  73.08013  72.22780  71.46950  71.34018
           D2         -74.19935 -73.06798 -72.08167 -71.47642 -71.25773
           D3         -99.48508 -99.18838 -98.74422 -98.30463 -97.54460
           D4          99.48575  99.18526  98.76820  98.28237  97.53744
           D5        -152.72762-150.62833-148.85139-147.48582-147.05109
           D6        -163.54325-164.05628-164.79936-165.59911-166.90458
                          16        17        18        19        20
     Eigenvalues --  **************************************************
           R1           2.38520   2.28520   2.18520   2.08520   1.98520
           R2           1.86710   1.86775   1.87010   1.87271   1.87561
           R3           0.97586   0.97512   0.97435   0.97399   0.97413
           R4           0.97586   0.97513   0.97434   0.97378   0.97375
           R5           0.97396   0.97414   0.97442   0.97455   0.97465
           R6           0.97396   0.97415   0.97443   0.97485   0.97512
           A1         100.00000 100.00000 100.00000 100.00000 100.00000
           A2         121.51800 121.95592 122.78824 124.00505 125.02321
           A3         121.52291 121.94725 122.77017 123.55767 124.29410
           A4         108.05289 108.46040 108.93876 109.33634 109.53994
           A5         124.85457 125.09979 125.22477 125.07974 124.85013
           A6         124.85459 125.09991 125.23368 125.33144 125.45333
           A7         109.33925 109.48411 109.53793 109.51414 109.45938
           D1          71.68718  73.03601  75.65788  84.02197  91.82586
           D2         -71.69016 -72.94168 -75.24550 -73.92144 -74.66141
           D3         -96.16615 -93.52475 -90.16039 -82.89967 -77.68254
           D4          96.20059  93.61987  90.60510  93.62436  96.12554
           D5        -147.66687-149.96528-154.38684-160.63157-168.18000
           D6        -169.26555-173.80353-179.33654 176.99188 174.65322
                          21        22        23        24        25
     Eigenvalues --  **************************************************
           R1           1.88520   1.78520   1.68520   1.58520   1.48520
           R2           1.88054   1.88695   1.89673   1.90787   1.91998
           R3           0.97510   0.97690   0.97922   0.98237   0.98679
           R4           0.97449   0.97603   0.97804   0.98081   0.98495
           R5           0.97456   0.97419   0.97393   0.97376   0.97369
           R6           0.97518   0.97491   0.97468   0.97456   0.97453
           A1         100.00000 100.00000 100.00000 100.00000 100.00000
           A2         125.66172 126.08614 126.52719 127.01536 127.50334
           A3         124.66967 124.79663 125.00763 125.29841 125.78754
           A4         109.38793 108.88721 108.22428 107.33144 106.08969
           A5         124.67498 124.72807 124.73560 124.69931 124.67916
           A6         125.66741 125.89397 126.04002 126.05477 125.82043
           A7         109.37077 109.33035 109.21873 109.06384 108.85811
           D1          99.04130 103.32215 106.92261 109.96938 108.76230
           D2         -74.21949 -70.54670 -66.76466 -62.31139 -60.93736
           D3         -74.06436 -75.07921 -76.70092 -79.14887 -82.67578
           D4          99.12202 102.13994 104.25849 106.29869 107.54825
           D5        -174.12743-174.68121-174.55918-173.40568-171.31740
           D6         174.13595 177.61289-179.17844-175.34223-171.25202
                          26
     Eigenvalues --  **********
           R1           1.38520
           R2           1.93561
           R3           0.99333
           R4           0.99156
           R5           0.97379
           R6           0.97449
           A1         100.00000
           A2         127.90199
           A3         126.70419
           A4         104.32625
           A5         124.71689
           A6         125.44551
           A7         108.63562
           D1         100.79864
           D2         -65.49729
           D3         -87.88106
           D4         106.08913
           D5        -168.69497
           D6        -168.02079
                          Input orientation:                          
 ---------------------------------------------------------------------
 Center     Atomic      Atomic             Coordinates (Angstroms)
 Number     Number       Type             X           Y           Z
 ---------------------------------------------------------------------
      1         29           0        0.505079    1.076009    1.493056
      2          8           0        0.336533    0.405591    2.693438
      3          8           0        1.384307   -0.303382    0.458247
      4          1           0        2.346693   -0.449990    0.433996
      5          1           0        0.971826   -0.824855   -0.254189
      6          1           0        0.882789    0.485937    3.519179
      7          1           0       -0.234248   -0.389310    2.853226
 ---------------------------------------------------------------------
                    Distance matrix (angstroms):
                    1          2          3          4          5
     1  Cu   0.000000
     2  O    1.385203   0.000000
     3  O    1.935612   2.568376   0.000000
     4  H    2.615688   3.142904   0.973791   0.000000
     5  H    2.623738   3.256701   0.974493   1.582523   0.000000
     6  H    2.143834   0.993327   3.200602   3.540809   3.995548
     7  H    2.131626   0.991559   2.891891   3.538024   3.361598
                    6          7
     6  H    0.000000
     7  H    1.567585   0.000000
 Stoichiometry    CuH4O2(2+,2)
 Framework group  C1[X(CuH4O2)]
 Deg. of freedom    15
 Full point group                 C1      NOp   1
 Largest Abelian subgroup         C1      NOp   1
 Largest concise Abelian subgroup C1      NOp   1
                         Standard orientation:                         
 ---------------------------------------------------------------------
 Center     Atomic      Atomic             Coordinates (Angstroms)
 Number     Number       Type             X           Y           Z
 ---------------------------------------------------------------------
      1         29           0       -0.220939    0.419951   -0.001362
      2          8           0       -0.978110   -0.739911   -0.015494
      3          8           0        1.558908   -0.340692    0.011311
      4          1           0        2.049536   -0.590559    0.814504
      5          1           0        2.172362   -0.355972   -0.745708
      6          1           0       -1.442044   -1.175113    0.747436
      7          1           0       -1.019015   -1.412118   -0.743268
 ---------------------------------------------------------------------
 Rotational constants (GHZ):     18.3215441      7.0488230      5.3437635

 **********************************************************************

            Population analysis using the SCF density.

 **********************************************************************

 Orbital symmetries:
 Alpha Orbitals:
       Occupied  (A) (A) (A) (A) (A) (A) (A) (A) (A) (A) (A) (A)
                 (A) (A) (A) (A) (A) (A) (A) (A) (A) (A) (A) (A)
       Virtual   (A) (A) (A) (A) (A) (A) (A) (A) (A) (A) (A) (A)
                 (A) (A) (A) (A) (A) (A) (A) (A) (A) (A) (A) (A)
                 (A) (A) (A) (A) (A) (A) (A) (A) (A) (A) (A) (A)
                 (A) (A) (A) (A) (A) (A) (A) (A) (A) (A) (A) (A)
                 (A) (A) (A) (A) (A) (A) (A) (A) (A) (A) (A) (A)
                 (A) (A) (A) (A) (A) (A) (A) (A) (A) (A)
 Beta  Orbitals:
       Occupied  (A) (A) (A) (A) (A) (A) (A) (A) (A) (A) (A) (A)
                 (A) (A) (A) (A) (A) (A) (A) (A) (A) (A) (A)
       Virtual   (A) (A) (A) (A) (A) (A) (A) (A) (A) (A) (A) (A)
                 (A) (A) (A) (A) (A) (A) (A) (A) (A) (A) (A) (A)
                 (A) (A) (A) (A) (A) (A) (A) (A) (A) (A) (A) (A)
                 (A) (A) (A) (A) (A) (A) (A) (A) (A) (A) (A) (A)
                 (A) (A) (A) (A) (A) (A) (A) (A) (A) (A) (A) (A)
                 (A) (A) (A) (A) (A) (A) (A) (A) (A) (A) (A)
 The electronic state is 2-A.
 Alpha  occ. eigenvalues -- -323.58153 -39.39920 -34.63358 -34.61672 -34.60113
 Alpha  occ. eigenvalues --  -19.69217 -19.60131  -4.94016  -3.48218  -3.42832
 Alpha  occ. eigenvalues --   -3.39758  -1.60740  -1.48485  -1.13648  -1.12075
 Alpha  occ. eigenvalues --   -1.01288  -1.00387  -0.96501  -0.88755  -0.88296
 Alpha  occ. eigenvalues --   -0.86572  -0.82780  -0.80377  -0.78452
 Alpha virt. eigenvalues --   -0.49940  -0.37994  -0.33421  -0.32880  -0.26360
 Alpha virt. eigenvalues --   -0.20328  -0.17915  -0.04204  -0.00515   0.01815
 Alpha virt. eigenvalues --    0.14082   0.20043   0.28108   0.31470   0.41955
 Alpha virt. eigenvalues --    0.43373   0.60422   0.68779   0.82476   0.89581
 Alpha virt. eigenvalues --    0.95363   0.96660   1.02954   1.14735   1.18241
 Alpha virt. eigenvalues --    1.48206   1.54486   1.60153   1.62802   1.64301
 Alpha virt. eigenvalues --    2.13841   2.17340   2.24301   2.28303   2.36859
 Alpha virt. eigenvalues --    2.43147   2.53987   2.65753   2.68933   2.94806
 Alpha virt. eigenvalues --    3.14322   3.38055   3.38891   3.39125   3.39541
 Alpha virt. eigenvalues --    3.58408   3.62610   3.71114   4.27349   4.31628
 Alpha virt. eigenvalues --    4.43159   4.48053   4.54299   5.30631   6.62354
 Alpha virt. eigenvalues --    6.63080   6.68669   6.72307   6.77688   8.86526
 Alpha virt. eigenvalues --    8.96849   9.50540  31.54408  42.25400  42.32244
 Alpha virt. eigenvalues --   42.70977  49.22924  49.25588 183.56917 978.83720
  Beta  occ. eigenvalues -- -323.58111 -39.37861 -34.60840 -34.59777 -34.59491
  Beta  occ. eigenvalues --  -19.68768 -19.59772  -4.89888  -3.41250  -3.38420
  Beta  occ. eigenvalues --   -3.38248  -1.59492  -1.47800  -1.11461  -1.10206
  Beta  occ. eigenvalues --   -1.00208  -0.98693  -0.93131  -0.86898  -0.86245
  Beta  occ. eigenvalues --   -0.84241  -0.81159  -0.78047
  Beta virt. eigenvalues --   -0.62205  -0.48985  -0.37690  -0.33232  -0.32619
  Beta virt. eigenvalues --   -0.26173  -0.20118  -0.17612  -0.03908  -0.00265
  Beta virt. eigenvalues --    0.01973   0.15239   0.21562   0.28515   0.31991
  Beta virt. eigenvalues --    0.42246   0.44083   0.61308   0.69204   0.83189
  Beta virt. eigenvalues --    0.90923   0.96563   0.99272   1.03854   1.16123
  Beta virt. eigenvalues --    1.19044   1.50824   1.54836   1.60489   1.63158
  Beta virt. eigenvalues --    1.64502   2.15459   2.18301   2.25518   2.28619
  Beta virt. eigenvalues --    2.38023   2.44167   2.55021   2.66633   2.69298
  Beta virt. eigenvalues --    2.95539   3.16439   3.38611   3.39507   3.41167
  Beta virt. eigenvalues --    3.41554   3.61034   3.65222   3.72823   4.28096
  Beta virt. eigenvalues --    4.32445   4.43764   4.49145   4.54610   5.32584
  Beta virt. eigenvalues --    6.64044   6.64764   6.70418   6.73837   6.85155
  Beta virt. eigenvalues --    8.87638   8.99641   9.54389  31.57143  42.26315
  Beta virt. eigenvalues --   42.34465  42.74370  49.23385  49.25965 183.57978
  Beta virt. eigenvalues --  978.83957
          Condensed to atoms (all electrons):
               1          2          3          4          5          6
     1  Cu  27.432013  -0.000091   0.068611  -0.003377  -0.002673  -0.008618
     2  O   -0.000091   8.424289  -0.005483   0.001980   0.000942   0.228746
     3  O    0.068611  -0.005483   8.348797   0.248610   0.248098   0.001383
     4  H   -0.003377   0.001980   0.248610   0.217976  -0.016995   0.000135
     5  H   -0.002673   0.000942   0.248098  -0.016995   0.217325  -0.000061
     6  H   -0.008618   0.228746   0.001383   0.000135  -0.000061   0.209844
     7  H   -0.013029   0.231979   0.004495  -0.000118   0.000190  -0.014792
               7
     1  Cu  -0.013029
     2  O    0.231979
     3  O    0.004495
     4  H   -0.000118
     5  H    0.000190
     6  H   -0.014792
     7  H    0.209891
          Atomic-Atomic Spin Densities.
               1          2          3          4          5          6
     1  Cu   0.789568  -0.077250  -0.033565   0.001066   0.001021   0.000716
     2  O   -0.077250   0.321181  -0.023202   0.000767   0.000360  -0.000378
     3  O   -0.033565  -0.023202   0.149290  -0.001675  -0.001103  -0.000036
     4  H    0.001066   0.000767  -0.001675   0.001838   0.000969  -0.000011
     5  H    0.001021   0.000360  -0.001103   0.000969   0.003871   0.000004
     6  H    0.000716  -0.000378  -0.000036  -0.000011   0.000004   0.001888
     7  H    0.000600  -0.001773   0.000298  -0.000020  -0.000026   0.000886
               7
     1  Cu   0.000600
     2  O   -0.001773
     3  O    0.000298
     4  H   -0.000020
     5  H   -0.000026
     6  H    0.000886
     7  H   -0.002933
 Mulliken charges and spin densities:
               1          2
     1  Cu   1.527163   0.682156
     2  O   -0.882362   0.219705
     3  O   -0.914512   0.090008
     4  H    0.551788   0.002934
     5  H    0.553174   0.005095
     6  H    0.583364   0.003069
     7  H    0.581384  -0.002968
 Sum of Mulliken charges =   2.00000   1.00000
 Mulliken charges and spin densities with hydrogens summed into heavy atoms:
               1          2
     1  Cu   1.527163   0.682156
     2  O    0.282386   0.219807
     3  O    0.190450   0.098037
 Electronic spatial extent (au):  <R**2>=            225.6807
 Charge=              2.0000 electrons
 Dipole moment (field-independent basis, Debye):
    X=              0.3046    Y=             -1.9269    Z=              0.2173  Tot=              1.9629
 Quadrupole moment (field-independent basis, Debye-Ang):
   XX=             -2.6367   YY=            -11.6842   ZZ=            -14.6994
   XY=              1.9711   XZ=             -1.0402   YZ=             -0.1679
 Traceless Quadrupole moment (field-independent basis, Debye-Ang):
   XX=              7.0367   YY=             -2.0108   ZZ=             -5.0260
   XY=              1.9711   XZ=             -1.0402   YZ=             -0.1679
 Octapole moment (field-independent basis, Debye-Ang**2):
  XXX=             20.2242  YYY=              2.1214  ZZZ=              0.4478  XYY=            -10.3366
  XXY=            -12.1053  XXZ=              1.9724  XZZ=              0.9409  YZZ=             -1.9013
  YYZ=             -0.7477  XYZ=             -0.5980
 Hexadecapole moment (field-independent basis, Debye-Ang**3):
 XXXX=            -62.4113 YYYY=            -34.1127 ZZZZ=            -12.2914 XXXY=             -9.4192
 XXXZ=             -7.1054 YYYX=             10.6409 YYYZ=              2.1026 ZZZX=             -0.5299
 ZZZY=             -0.3287 XXYY=            -18.3500 XXZZ=             -8.6815 YYZZ=             -4.9102
 XXYZ=             -4.4416 YYXZ=              0.9940 ZZXY=              0.9859
 N-N= 2.152324426245D+02 E-N=-4.690878946571D+03  KE= 1.792547334787D+03
                          Isotropic Fermi Contact Couplings
        Atom                 a.u.       MegaHertz       Gauss      10(-4) cm-1
     1  Cu(63)             0.34471     408.87052     145.89516     136.38452
     2  O(17)              0.13484     -81.74192     -29.16755     -27.26617
     3  O(17)              0.20713    -125.56304     -44.80401     -41.88332
     4  H(1)               0.00239      10.69577       3.81651       3.56772
     5  H(1)               0.00395      17.67822       6.30803       5.89682
     6  H(1)               0.00397      17.74036       6.33020       5.91755
     7  H(1)               0.00032       1.44223       0.51462       0.48107
 --------------------------------------------------------
       Center         ----  Spin Dipole Couplings  ----
                      3XX-RR        3YY-RR        3ZZ-RR
 --------------------------------------------------------
     1   Atom        0.987813      2.583516     -3.571329
     2   Atom        0.510494     -0.204044     -0.306449
     3   Atom        0.405949     -0.194466     -0.211482
     4   Atom        0.006491     -0.013849      0.007358
     5   Atom        0.009662     -0.016263      0.006600
     6   Atom       -0.007167     -0.005554      0.012721
     7   Atom       -0.013374      0.011091      0.002283
 --------------------------------------------------------
                        XY            XZ            YZ
 --------------------------------------------------------
     1   Atom        1.350732     -0.036596     -0.403716
     2   Atom        0.288542      0.161480      0.054143
     3   Atom       -0.093986      0.018764     -0.002919
     4   Atom       -0.008843      0.013758     -0.008195
     5   Atom       -0.004909     -0.016148      0.000326
     6   Atom        0.022089     -0.016202     -0.020830
     7   Atom        0.011290      0.000359      0.031774
 --------------------------------------------------------


 ---------------------------------------------------------------------------------
              Anisotropic Spin Dipole Couplings in Principal Axis System
 ---------------------------------------------------------------------------------

       Atom             a.u.   MegaHertz   Gauss  10(-4) cm-1        Axes

              Baa    -3.5983  -509.456  -181.786  -169.936 -0.0120  0.0678  0.9976
     1 Cu(63) Bbb     0.2243    31.753    11.330    10.592  0.8702 -0.4907  0.0438
              Bcc     3.3740   477.702   170.456   159.344  0.4925  0.8687 -0.0531
 
              Baa    -0.3372    24.402     8.707     8.139 -0.1946  0.0230  0.9806
     2 O(17)  Bbb    -0.3058    22.126     7.895     7.380 -0.3171  0.9446 -0.0851
              Bcc     0.6430   -46.527   -16.602   -15.520  0.9282  0.3275  0.1765
 
              Baa    -0.2121    15.344     5.475     5.118 -0.0273  0.0198  0.9994
     3 O(17)  Bbb    -0.2088    15.111     5.392     5.041  0.1516  0.9883 -0.0154
              Bcc     0.4209   -30.455   -10.867   -10.159  0.9881 -0.1511  0.0300
 
              Baa    -0.0177    -9.426    -3.363    -3.144  0.2490  0.9526  0.1751
     4 H(1)   Bbb    -0.0068    -3.632    -1.296    -1.211 -0.7010  0.0525  0.7112
              Bcc     0.0245    13.058     4.659     4.356  0.6683 -0.2998  0.6808
 
              Baa    -0.0176    -9.391    -3.351    -3.133  0.2698  0.9483  0.1672
     5 H(1)   Bbb    -0.0071    -3.796    -1.354    -1.266  0.6133 -0.3031  0.7294
              Bcc     0.0247    13.187     4.706     4.399  0.7423 -0.0942 -0.6634
 
              Baa    -0.0288   -15.347    -5.476    -5.119 -0.6707  0.7340  0.1066
     6 H(1)   Bbb    -0.0118    -6.299    -2.248    -2.101  0.5620  0.4092  0.7188
              Bcc     0.0406    21.646     7.724     7.220 -0.4840 -0.5420  0.6870
 
              Baa    -0.0289   -15.435    -5.508    -5.149  0.4431 -0.6308  0.6370
     7 H(1)   Bbb    -0.0113    -6.021    -2.148    -2.008  0.8814  0.1770 -0.4379
              Bcc     0.0402    21.456     7.656     7.157  0.1634  0.7555  0.6344
 

 ---------------------------------------------------------------------------------

 B after Tr=     2.086281   -2.450442   -0.488617
         Rot=    0.811681    0.225283    0.030996   -0.538015 Ang=  71.48 deg.
 Atom   5 needs variable   3=   0.9744934258 but is    0.9737910102
 Input z-matrix variables are not compatible with final structure.

 This type of calculation cannot be archived.


 SOME PEOPLE TRY TO PULL THE WOOL OVER YOUR EYES
 USING THE WRONG YARN.
 Job cpu time:       0 days  1 hours 45 minutes 39.1 seconds.
 File lengths (MBytes):  RWF=     10 Int=      0 D2E=      0 Chk=      3 Scr=      1
 Normal termination of Gaussian 09 at Fri Jun 17 12:57:14 2016.
