 Entering Gaussian System, Link 0=g09
 Input=2coord_b3lyp_A_F_175.inp
 Output=2coord_b3lyp_A_F_175.log
 Initial command:
 /usr/local/g09/l1.exe "./Gau-23639.inp" -scrdir="./"
 Entering Link 1 = /usr/local/g09/l1.exe PID=     23641.
  
 Copyright (c) 1988,1990,1992,1993,1995,1998,2003,2009,2013,
            Gaussian, Inc.  All Rights Reserved.
  
 This is part of the Gaussian(R) 09 program.  It is based on
 the Gaussian(R) 03 system (copyright 2003, Gaussian, Inc.),
 the Gaussian(R) 98 system (copyright 1998, Gaussian, Inc.),
 the Gaussian(R) 94 system (copyright 1995, Gaussian, Inc.),
 the Gaussian 92(TM) system (copyright 1992, Gaussian, Inc.),
 the Gaussian 90(TM) system (copyright 1990, Gaussian, Inc.),
 the Gaussian 88(TM) system (copyright 1988, Gaussian, Inc.),
 the Gaussian 86(TM) system (copyright 1986, Carnegie Mellon
 University), and the Gaussian 82(TM) system (copyright 1983,
 Carnegie Mellon University). Gaussian is a federally registered
 trademark of Gaussian, Inc.
  
 This software contains proprietary and confidential information,
 including trade secrets, belonging to Gaussian, Inc.
  
 This software is provided under written license and may be
 used, copied, transmitted, or stored only in accord with that
 written license.
  
 The following legend is applicable only to US Government
 contracts under FAR:
  
                    RESTRICTED RIGHTS LEGEND
  
 Use, reproduction and disclosure by the US Government is
 subject to restrictions as set forth in subparagraphs (a)
 and (c) of the Commercial Computer Software - Restricted
 Rights clause in FAR 52.227-19.
  
 Gaussian, Inc.
 340 Quinnipiac St., Bldg. 40, Wallingford CT 06492
  
  
 ---------------------------------------------------------------
 Warning -- This program may not be used in any manner that
 competes with the business of Gaussian, Inc. or will provide
 assistance to any competitor of Gaussian, Inc.  The licensee
 of this program is prohibited from giving any competitor of
 Gaussian, Inc. access to this program.  By using this program,
 the user acknowledges that Gaussian, Inc. is engaged in the
 business of creating and licensing software in the field of
 computational chemistry and represents and warrants to the
 licensee that it is not a competitor of Gaussian, Inc. and that
 it will not use this program in any manner prohibited above.
 ---------------------------------------------------------------
  

 Cite this work as:
 Gaussian 09, Revision D.01,
 M. J. Frisch, G. W. Trucks, H. B. Schlegel, G. E. Scuseria, 
 M. A. Robb, J. R. Cheeseman, G. Scalmani, V. Barone, B. Mennucci, 
 G. A. Petersson, H. Nakatsuji, M. Caricato, X. Li, H. P. Hratchian, 
 A. F. Izmaylov, J. Bloino, G. Zheng, J. L. Sonnenberg, M. Hada, 
 M. Ehara, K. Toyota, R. Fukuda, J. Hasegawa, M. Ishida, T. Nakajima, 
 Y. Honda, O. Kitao, H. Nakai, T. Vreven, J. A. Montgomery, Jr., 
 J. E. Peralta, F. Ogliaro, M. Bearpark, J. J. Heyd, E. Brothers, 
 K. N. Kudin, V. N. Staroverov, T. Keith, R. Kobayashi, J. Normand, 
 K. Raghavachari, A. Rendell, J. C. Burant, S. S. Iyengar, J. Tomasi, 
 M. Cossi, N. Rega, J. M. Millam, M. Klene, J. E. Knox, J. B. Cross, 
 V. Bakken, C. Adamo, J. Jaramillo, R. Gomperts, R. E. Stratmann, 
 O. Yazyev, A. J. Austin, R. Cammi, C. Pomelli, J. W. Ochterski, 
 R. L. Martin, K. Morokuma, V. G. Zakrzewski, G. A. Voth, 
 P. Salvador, J. J. Dannenberg, S. Dapprich, A. D. Daniels, 
 O. Farkas, J. B. Foresman, J. V. Ortiz, J. Cioslowski, 
 and D. J. Fox, Gaussian, Inc., Wallingford CT, 2013.
 
 ******************************************
 Gaussian 09:  EM64L-G09RevD.01 24-Apr-2013
                18-Jun-2016 
 ******************************************
 %mem=2GB
 %nprocshared=1
 Will use up to    1 processors via shared memory.
 %chk=pescuh2o2.chk
 -------------------------------------------------------
 #opt=(modredundant,maxcycles=350) B3LYP/6-311G* scf=xqc
 -------------------------------------------------------
 1/6=350,14=-1,18=120,19=15,26=3,38=1/1,3;
 2/9=110,12=2,17=6,18=5,40=1/2;
 3/5=4,6=6,7=1,11=2,16=1,25=1,30=1,71=1,74=-5/1,2,3;
 4//1;
 5/5=2,8=3,13=1,38=5/2,8;
 6/7=2,8=2,9=2,10=2,28=1/1;
 7//1,2,3,16;
 1/6=350,14=-1,18=20,19=15,26=3/3(2);
 2/9=110/2;
 99//99;
 2/9=110/2;
 3/5=4,6=6,7=1,11=2,16=1,25=1,30=1,71=1,74=-5/1,2,3;
 4/5=5,16=3,69=1/1;
 5/5=2,8=3,13=1,38=5/2,8;
 7//1,2,3,16;
 1/6=350,14=-1,18=20,19=15,26=3/3(-5);
 2/9=110/2;
 6/7=2,8=2,9=2,10=2,19=2,28=1/1;
 99/9=1/99;
 ---------
 cu2(h20)2
 ---------
 Symbolic Z-matrix:
 Charge =  2 Multiplicity = 2
 Cu
 O                    1    A
 O                    1    B        2    C
 H                    3    D        1    E        2    F        0
 H                    3    D        1    E        4    G        0
 H                    2    D        1    E        4    F        0
 H                    2    D        1    E        6    G        0
       Variables:
  A                     3.8852                   
  B                     1.88506                  
  C                   175.                       
  D                     0.95                     
  E                   109.471                    
  F                   180.                       
  G                   120.                       
 
     4 tetrahedral angles replaced.
 Add virtual bond connecting atoms O2         and Cu1        Dist= 7.34D+00.
 The following ModRedundant input section has been read:
 

 GradGradGradGradGradGradGradGradGradGradGradGradGradGradGradGradGradGrad
 Berny optimization.
 Initialization pass.
                           ----------------------------
                           !    Initial Parameters    !
                           ! (Angstroms and Degrees)  !
 --------------------------                            --------------------------
 ! Name  Definition              Value          Derivative Info.                !
 --------------------------------------------------------------------------------
 ! R1    R(1,2)                  3.8852         estimate D2E/DX2                !
 ! R2    R(1,3)                  1.8851         estimate D2E/DX2                !
 ! R3    R(2,6)                  0.95           estimate D2E/DX2                !
 ! R4    R(2,7)                  0.95           estimate D2E/DX2                !
 ! R5    R(3,4)                  0.95           estimate D2E/DX2                !
 ! R6    R(3,5)                  0.95           estimate D2E/DX2                !
 ! A1    A(1,2,6)              109.4712         estimate D2E/DX2                !
 ! A2    A(1,2,7)              109.4712         estimate D2E/DX2                !
 ! A3    A(6,2,7)              109.4712         estimate D2E/DX2                !
 ! A4    A(1,3,4)              109.4712         estimate D2E/DX2                !
 ! A5    A(1,3,5)              109.4712         estimate D2E/DX2                !
 ! A6    A(4,3,5)              109.4712         estimate D2E/DX2                !
 ! A7    L(2,1,3,5,-1)         177.1413         estimate D2E/DX2                !
 ! A8    L(2,1,3,5,-2)         169.71           estimate D2E/DX2                !
 ! D1    D(6,2,3,4)            180.0            estimate D2E/DX2                !
 ! D2    D(6,2,3,5)            -59.0223         estimate D2E/DX2                !
 ! D3    D(7,2,3,4)            -60.5126         estimate D2E/DX2                !
 ! D4    D(7,2,3,5)             60.4651         estimate D2E/DX2                !
 --------------------------------------------------------------------------------
 Trust Radius=3.00D-01 FncErr=1.00D-07 GrdErr=1.00D-06
 Number of steps in this run=    100 maximum allowed number of steps=    100.
 GradGradGradGradGradGradGradGradGradGradGradGradGradGradGradGradGradGrad

                          Input orientation:                          
 ---------------------------------------------------------------------
 Center     Atomic      Atomic             Coordinates (Angstroms)
 Number     Number       Type             X           Y           Z
 ---------------------------------------------------------------------
      1         29           0        0.000000    0.000000    0.000000
      2          8           0        0.000000    0.000000    3.885203
      3          8           0        0.164294    0.000000   -1.877888
      4          1           0       -0.700367    0.000000   -2.271412
      5          1           0        0.638023    0.775672   -2.154318
      6          1           0        0.895669    0.000000    4.201870
      7          1           0       -0.447834    0.775672    4.201870
 ---------------------------------------------------------------------
                    Distance matrix (angstroms):
                    1          2          3          4          5
     1  Cu   0.000000
     2  O    3.885203   0.000000
     3  O    1.885061   5.765432   0.000000
     4  H    2.376936   6.196323   0.950000   0.000000
     5  H    2.376936   6.122463   0.950000   1.551344   0.000000
     6  H    4.296269   0.950000   6.123590   6.667136   6.408523
     7  H    4.296269   0.950000   6.159531   6.524478   6.448272
                    6          7
     6  H    0.000000
     7  H    1.551344   0.000000
 Stoichiometry    CuH4O2(2+,2)
 Framework group  C1[X(CuH4O2)]
 Deg. of freedom    15
 Full point group                 C1      NOp   1
 Largest Abelian subgroup         C1      NOp   1
 Largest concise Abelian subgroup C1      NOp   1
                         Standard orientation:                         
 ---------------------------------------------------------------------
 Center     Atomic      Atomic             Coordinates (Angstroms)
 Number     Number       Type             X           Y           Z
 ---------------------------------------------------------------------
      1         29           0       -0.408859   -0.040035   -0.025372
      2          8           0        3.476227   -0.019833   -0.047734
      3          8           0       -2.287642    0.113529   -0.032317
      4          1           0       -2.676147   -0.748100    0.063383
      5          1           0       -2.562805    0.666881    0.689200
      6          1           0        3.787697    0.872222   -0.146342
      7          1           0        3.799480   -0.379549    0.769953
 ---------------------------------------------------------------------
 Rotational constants (GHZ):    148.9490356      1.5252077      1.5203984
 Standard basis: 6-311G(d) (5D, 7F)
 There are   102 symmetry adapted cartesian basis functions of A   symmetry.
 There are    94 symmetry adapted basis functions of A   symmetry.
    94 basis functions,   165 primitive gaussians,   102 cartesian basis functions
    24 alpha electrons       23 beta electrons
       nuclear repulsion energy       144.2427718796 Hartrees.
 NAtoms=    7 NActive=    7 NUniq=    7 SFac= 1.00D+00 NAtFMM=   60 NAOKFM=F Big=F
 Integral buffers will be    131072 words long.
 Raffenetti 2 integral format.
 Two-electron integral symmetry is turned on.
 One-electron integrals computed using PRISM.
 NBasis=    94 RedAO= T EigKep=  9.37D-03  NBF=    94
 NBsUse=    94 1.00D-06 EigRej= -1.00D+00 NBFU=    94
 ExpMin= 4.08D-02 ExpMax= 3.37D+05 ExpMxC= 1.14D+04 IAcc=2 IRadAn=         4 AccDes= 0.00D+00
 Harris functional with IExCor=  402 and IRadAn=       4 diagonalized for initial guess.
 HarFok:  IExCor=  402 AccDes= 0.00D+00 IRadAn=         4 IDoV= 1 UseB2=F ITyADJ=14
 ICtDFT=  3500011 ScaDFX=  1.000000  1.000000  1.000000  1.000000
 FoFCou: FMM=F IPFlag=           0 FMFlag=      100000 FMFlg1=           0
         NFxFlg=           0 DoJE=T BraDBF=F KetDBF=T FulRan=T
         wScrn=  0.000000 ICntrl=     500 IOpCl=  0 I1Cent=   200000004 NGrid=           0
         NMat0=    1 NMatS0=      1 NMatT0=    0 NMatD0=    1 NMtDS0=    0 NMtDT0=    0
 Petite list used in FoFCou.
 Initial guess <Sx>= 0.0000 <Sy>= 0.0000 <Sz>= 0.5000 <S**2>= 0.7500 S= 0.5000
 Keep R1 and R2 ints in memory in canonical form, NReq=21960757.
 Requested convergence on RMS density matrix=1.00D-08 within  64 cycles.
 Requested convergence on MAX density matrix=1.00D-06.
 Requested convergence on             energy=1.00D-06.
 No special actions if energy rises.
 EnCoef did   100 forward-backward iterations
 EnCoef did   100 forward-backward iterations
 EnCoef did   100 forward-backward iterations
 EnCoef did     1 forward-backward iterations
 EnCoef did    42 forward-backward iterations
 EnCoef did    42 forward-backward iterations
 EnCoef did   100 forward-backward iterations
 EnCoef did    14 forward-backward iterations
 Rare condition: small coef for last iteration:  0.000D+00
 Rare condition: small coef for last iteration:  0.000D+00
 Rare condition: small coef for last iteration:  0.000D+00
 Rare condition: small coef for last iteration:  0.000D+00
 EnCoef did   100 forward-backward iterations
 EnCoef did   100 forward-backward iterations
 Rare condition: small coef for last iteration:  0.000D+00
 EnCoef did   100 forward-backward iterations
 Rare condition: small coef for last iteration:  0.000D+00
 EnCoef did   100 forward-backward iterations
 EnCoef did   100 forward-backward iterations
 Rare condition: small coef for last iteration:  0.000D+00
 Rare condition: small coef for last iteration:  0.000D+00
 Rare condition: small coef for last iteration:  0.000D+00
 EnCoef did   100 forward-backward iterations
 Rare condition: small coef for last iteration:  0.000D+00
 EnCoef did   100 forward-backward iterations
 SCF Done:  E(UB3LYP) =  -1792.52773252     A.U. after   60 cycles
            NFock= 60  Conv=0.33D-08     -V/T= 2.0005
 <Sx>= 0.0000 <Sy>= 0.0000 <Sz>= 0.5000 <S**2>= 0.7681 S= 0.5090
 <L.S>= 0.000000000000E+00
 Annihilation of the first spin contaminant:
 S**2 before annihilation     0.7681,   after     0.7500
 QCSCF skips out because SCF is already converged.

 **********************************************************************

            Population analysis using the SCF density.

 **********************************************************************

 Orbital symmetries:
 Alpha Orbitals:
       Occupied  (A) (A) (A) (A) (A) (A) (A) (A) (A) (A) (A) (A)
                 (A) (A) (A) (A) (A) (A) (A) (A) (A) (A) (A) (A)
       Virtual   (A) (A) (A) (A) (A) (A) (A) (A) (A) (A) (A) (A)
                 (A) (A) (A) (A) (A) (A) (A) (A) (A) (A) (A) (A)
                 (A) (A) (A) (A) (A) (A) (A) (A) (A) (A) (A) (A)
                 (A) (A) (A) (A) (A) (A) (A) (A) (A) (A) (A) (A)
                 (A) (A) (A) (A) (A) (A) (A) (A) (A) (A) (A) (A)
                 (A) (A) (A) (A) (A) (A) (A) (A) (A) (A)
 Beta  Orbitals:
       Occupied  (A) (A) (A) (A) (A) (A) (A) (A) (A) (A) (A) (A)
                 (A) (A) (A) (A) (A) (A) (A) (A) (A) (A) (A)
       Virtual   (A) (A) (A) (A) (A) (A) (A) (A) (A) (A) (A) (A)
                 (A) (A) (A) (A) (A) (A) (A) (A) (A) (A) (A) (A)
                 (A) (A) (A) (A) (A) (A) (A) (A) (A) (A) (A) (A)
                 (A) (A) (A) (A) (A) (A) (A) (A) (A) (A) (A) (A)
                 (A) (A) (A) (A) (A) (A) (A) (A) (A) (A) (A) (A)
                 (A) (A) (A) (A) (A) (A) (A) (A) (A) (A) (A)
 The electronic state is 2-A.
 Alpha  occ. eigenvalues -- -323.46825 -39.26348 -34.49687 -34.47857 -34.47778
 Alpha  occ. eigenvalues --  -19.58402 -19.57765  -4.79913  -3.32176  -3.28363
 Alpha  occ. eigenvalues --   -3.28218  -1.48234  -1.46159  -0.99787  -0.96785
 Alpha  occ. eigenvalues --   -0.90254  -0.81782  -0.80617  -0.78193  -0.77921
 Alpha  occ. eigenvalues --   -0.77233  -0.76792  -0.76767  -0.75411
 Alpha virt. eigenvalues --   -0.51435  -0.31615  -0.29848  -0.24438  -0.21264
 Alpha virt. eigenvalues --   -0.19159  -0.02936   0.02842   0.03394   0.06213
 Alpha virt. eigenvalues --    0.27309   0.31003   0.34617   0.38113   0.43353
 Alpha virt. eigenvalues --    0.50547   0.67524   0.75656   0.82740   0.83148
 Alpha virt. eigenvalues --    0.97615   0.97679   0.98244   1.03324   1.07815
 Alpha virt. eigenvalues --    1.30406   1.60682   1.62797   1.65432   1.67124
 Alpha virt. eigenvalues --    2.29800   2.30623   2.30870   2.32055   2.33460
 Alpha virt. eigenvalues --    2.46703   2.70080   2.74219   2.77618   3.03528
 Alpha virt. eigenvalues --    3.07090   3.46826   3.47087   3.47343   3.47546
 Alpha virt. eigenvalues --    3.47627   3.48035   3.48052   4.26985   4.33702
 Alpha virt. eigenvalues --    4.40997   4.45235   4.57512   4.57764   6.69104
 Alpha virt. eigenvalues --    6.69133   6.71526   6.72530   6.79057   8.79587
 Alpha virt. eigenvalues --    8.81060   9.07547  31.46905  42.25271  42.26323
 Alpha virt. eigenvalues --   42.43453  49.26112  49.28859 183.53654 978.79241
  Beta  occ. eigenvalues -- -323.46825 -39.25102 -34.47979 -34.47156 -34.47153
  Beta  occ. eigenvalues --  -19.58231 -19.56395  -4.77359  -3.27442  -3.26622
  Beta  occ. eigenvalues --   -3.26567  -1.47840  -1.42737  -0.99653  -0.95778
  Beta  occ. eigenvalues --   -0.88668  -0.80079  -0.79116  -0.77213  -0.75497
  Beta  occ. eigenvalues --   -0.75363  -0.75214  -0.66558
  Beta virt. eigenvalues --   -0.63664  -0.50545  -0.31500  -0.29392  -0.24374
  Beta virt. eigenvalues --   -0.20970  -0.18965  -0.02878   0.02963   0.03474
  Beta virt. eigenvalues --    0.06749   0.28050   0.31260   0.38572   0.38991
  Beta virt. eigenvalues --    0.43479   0.51235   0.67940   0.77536   0.83351
  Beta virt. eigenvalues --    0.83650   0.98207   0.98321   1.01170   1.03708
  Beta virt. eigenvalues --    1.08191   1.31593   1.60712   1.62735   1.65787
  Beta virt. eigenvalues --    1.67384   2.31078   2.31145   2.33974   2.34316
  Beta virt. eigenvalues --    2.37910   2.47285   2.71181   2.77814   2.78604
  Beta virt. eigenvalues --    3.03664   3.07762   3.47505   3.47529   3.48948
  Beta virt. eigenvalues --    3.49009   3.49031   3.49350   3.50504   4.33024
  Beta virt. eigenvalues --    4.34125   4.42174   4.45773   4.57664   4.59001
  Beta virt. eigenvalues --    6.70258   6.70273   6.72379   6.73347   6.83951
  Beta virt. eigenvalues --    8.80741   8.82092   9.10337  31.48564  42.26192
  Beta virt. eigenvalues --   42.27152  42.45698  49.27488  49.29032 183.54279
  Beta virt. eigenvalues --  978.79363
          Condensed to atoms (all electrons):
               1          2          3          4          5          6
     1  Cu  27.636295   0.007001   0.107422  -0.004994  -0.004831  -0.000274
     2  O    0.007001   8.006604   0.000000  -0.000001  -0.000001   0.245258
     3  O    0.107422   0.000000   8.242820   0.245185   0.245119   0.000000
     4  H   -0.004994  -0.000001   0.245185   0.245319  -0.018325   0.000000
     5  H   -0.004831  -0.000001   0.245119  -0.018325   0.247375   0.000000
     6  H   -0.000274   0.245258   0.000000   0.000000   0.000000   0.263133
     7  H   -0.000274   0.245114   0.000000   0.000000   0.000000  -0.019419
               7
     1  Cu  -0.000274
     2  O    0.245114
     3  O    0.000000
     4  H    0.000000
     5  H    0.000000
     6  H   -0.019419
     7  H    0.264493
          Atomic-Atomic Spin Densities.
               1          2          3          4          5          6
     1  Cu   0.439280  -0.002643  -0.011157   0.000717   0.000632  -0.000042
     2  O   -0.002643   0.558106   0.000000   0.000000   0.000000  -0.006304
     3  O   -0.011157   0.000000   0.075009  -0.000284  -0.000253   0.000000
     4  H    0.000717   0.000000  -0.000284  -0.001443   0.000030   0.000000
     5  H    0.000632   0.000000  -0.000253   0.000030  -0.001482   0.000000
     6  H   -0.000042  -0.006304   0.000000   0.000000   0.000000  -0.010186
     7  H   -0.000044  -0.006285   0.000000   0.000000   0.000000   0.001105
               7
     1  Cu  -0.000044
     2  O   -0.006285
     3  O    0.000000
     4  H    0.000000
     5  H    0.000000
     6  H    0.001105
     7  H   -0.010225
 Mulliken charges and spin densities:
               1          2
     1  Cu   1.259655   0.426742
     2  O   -0.503975   0.542873
     3  O   -0.840546   0.063313
     4  H    0.532817  -0.000981
     5  H    0.530662  -0.001073
     6  H    0.511301  -0.015426
     7  H    0.510086  -0.015449
 Sum of Mulliken charges =   2.00000   1.00000
 Mulliken charges and spin densities with hydrogens summed into heavy atoms:
               1          2
     1  Cu   1.259655   0.426742
     2  O    0.517412   0.511998
     3  O    0.222933   0.061260
 Electronic spatial extent (au):  <R**2>=            672.6218
 Charge=              2.0000 electrons
 Dipole moment (field-independent basis, Debye):
    X=              3.6467    Y=              0.3782    Z=              3.2882  Tot=              4.9249
 Quadrupole moment (field-independent basis, Debye-Ang):
   XX=             37.6889   YY=            -15.8256   ZZ=            -18.2749
   XY=              6.2333   XZ=              0.9674   YZ=              0.0569
 Traceless Quadrupole moment (field-independent basis, Debye-Ang):
   XX=             36.4928   YY=            -17.0217   ZZ=            -19.4710
   XY=              6.2333   XZ=              0.9674   YZ=              0.0569
 Octapole moment (field-independent basis, Debye-Ang**2):
  XXX=            113.2931  YYY=              0.1978  ZZZ=              2.6916  XYY=             -0.8300
  XXY=             11.8000  XXZ=             35.3123  XZZ=              0.3958  YZZ=             -0.0521
  YYZ=              1.1584  XYZ=             -7.5794
 Hexadecapole moment (field-independent basis, Debye-Ang**3):
 XXXX=            151.0731 YYYY=            -12.9970 ZZZZ=            -13.3802 XXXY=             79.3117
 XXXZ=             49.1117 YYYX=              9.9232 YYYZ=              0.1503 ZZZX=              2.8363
 ZZZY=              0.1841 XXYY=            -63.0314 XXZZ=            -85.2761 YYZZ=             -4.3308
 XXYZ=             -8.8035 YYXZ=             -2.0695 ZZXY=             -2.7106
 N-N= 1.442427718796D+02 E-N=-4.553447909212D+03  KE= 1.791576965223D+03
                          Isotropic Fermi Contact Couplings
        Atom                 a.u.       MegaHertz       Gauss      10(-4) cm-1
     1  Cu(63)            -0.21825    -258.87188     -92.37192     -86.35036
     2  O(17)              0.04449     -26.96741      -9.62264      -8.99536
     3  O(17)              0.02012     -12.19587      -4.35179      -4.06810
     4  H(1)              -0.00088      -3.91593      -1.39730      -1.30621
     5  H(1)              -0.00090      -4.01564      -1.43288      -1.33947
     6  H(1)              -0.00818     -36.56893     -13.04870     -12.19808
     7  H(1)              -0.00818     -36.57964     -13.05253     -12.20166
 --------------------------------------------------------
       Center         ----  Spin Dipole Couplings  ----
                      3XX-RR        3YY-RR        3ZZ-RR
 --------------------------------------------------------
     1   Atom        2.240566     -1.205363     -1.035204
     2   Atom        0.939138     -0.659765     -0.279373
     3   Atom        0.243952     -0.124881     -0.119071
     4   Atom        0.007388      0.005557     -0.012946
     5   Atom        0.004961     -0.005094      0.000134
     6   Atom       -0.024273      0.082200     -0.057927
     7   Atom       -0.022896     -0.039685      0.062582
 --------------------------------------------------------
                        XY            XZ            YZ
 --------------------------------------------------------
     1   Atom       -0.190259     -0.254358     -0.069873
     2   Atom       -0.910505     -1.269120      0.561160
     3   Atom       -0.066205      0.082736     -0.014005
     4   Atom        0.009084     -0.000034     -0.002284
     5   Atom       -0.007086     -0.005831      0.010200
     6   Atom        0.039175     -0.023362     -0.010926
     7   Atom       -0.034355      0.031654     -0.048616
 --------------------------------------------------------


 ---------------------------------------------------------------------------------
              Anisotropic Spin Dipole Couplings in Principal Axis System
 ---------------------------------------------------------------------------------

       Atom             a.u.   MegaHertz   Gauss  10(-4) cm-1        Axes

              Baa    -1.2512  -177.151   -63.212   -59.091  0.0784  0.9178  0.3891
     1 Cu(63) Bbb    -1.0188  -144.237   -51.467   -48.112  0.0487 -0.3934  0.9181
              Bcc     2.2700   321.388   114.679   107.203  0.9957 -0.0530 -0.0755
 
              Baa    -1.0833    78.390    27.971    26.148  0.6112  0.4728  0.6347
     2 O(17)  Bbb    -1.0621    76.851    27.422    25.635 -0.0087  0.8059 -0.5920
              Bcc     2.1454  -155.241   -55.394   -51.783  0.7915 -0.3562 -0.4967
 
              Baa    -0.1372     9.927     3.542     3.311 -0.2599 -0.3956  0.8809
     3 O(17)  Bbb    -0.1362     9.857     3.517     3.288  0.0648  0.9030  0.4246
              Bcc     0.2734   -19.784    -7.059    -6.599  0.9634 -0.1675  0.2091
 
              Baa    -0.0133    -7.092    -2.531    -2.366 -0.0645  0.1506  0.9865
     4 H(1)   Bbb    -0.0024    -1.278    -0.456    -0.426 -0.6725  0.7238 -0.1545
              Bcc     0.0157     8.370     2.987     2.792  0.7373  0.6734 -0.0546
 
              Baa    -0.0133    -7.092    -2.531    -2.366  0.1380  0.8166 -0.5605
     5 H(1)   Bbb    -0.0024    -1.257    -0.448    -0.419  0.7503  0.2832  0.5973
              Bcc     0.0156     8.349     2.979     2.785  0.6465 -0.5030 -0.5737
 
              Baa    -0.0704   -37.572   -13.407   -12.533  0.4939 -0.0647  0.8671
     6 H(1)   Bbb    -0.0267   -14.241    -5.081    -4.750  0.8065 -0.3388 -0.4846
              Bcc     0.0971    51.813    18.488    17.283  0.3251  0.9386 -0.1151
 
              Baa    -0.0704   -37.580   -13.409   -12.535  0.4853  0.8521  0.1959
     7 H(1)   Bbb    -0.0267   -14.243    -5.082    -4.751  0.8066 -0.3499 -0.4765
              Bcc     0.0971    51.823    18.492    17.286  0.3375 -0.3893  0.8571
 

 ---------------------------------------------------------------------------------

 Calling FoFJK, ICntrl=      2127 FMM=F ISym2X=0 I1Cent= 0 IOpClX= 1 NMat=1 NMatS=1 NMatT=0.
 ***** Axes restored to original set *****
 -------------------------------------------------------------------
 Center     Atomic                   Forces (Hartrees/Bohr)
 Number     Number              X              Y              Z
 -------------------------------------------------------------------
      1       29           0.001871941   -0.009050439    0.004397528
      2        8          -0.010007594   -0.017014669   -0.027903905
      3        8          -0.000135537   -0.003550999    0.036701819
      4        1          -0.016281162   -0.003144495   -0.024390126
      5        1           0.013462764    0.014083256   -0.022017711
      6        1           0.025343154   -0.002121330    0.016532298
      7        1          -0.014253565    0.020798677    0.016680097
 -------------------------------------------------------------------
 Cartesian Forces:  Max     0.036701819 RMS     0.017183819

 GradGradGradGradGradGradGradGradGradGradGradGradGradGradGradGradGradGrad
 Berny optimization.
 FormGI is forming the generalized inverse of G from B-inverse, IUseBI=4.
 Internal  Forces:  Max     0.029426010 RMS     0.016138082
 Search for a local minimum.
 Step number   1 out of a maximum of  100
 All quantities printed in internal units (Hartrees-Bohrs-Radians)
 Mixed Optimization -- RFO/linear search
 Second derivative matrix not updated -- first step.
 The second derivative matrix:
                          R1        R2        R3        R4        R5
           R1           0.00858
           R2           0.00000   0.19001
           R3           0.00000   0.00000   0.57681
           R4           0.00000   0.00000   0.00000   0.57681
           R5           0.00000   0.00000   0.00000   0.00000   0.57681
           R6           0.00000   0.00000   0.00000   0.00000   0.00000
           A1           0.00000   0.00000   0.00000   0.00000   0.00000
           A2           0.00000   0.00000   0.00000   0.00000   0.00000
           A3           0.00000   0.00000   0.00000   0.00000   0.00000
           A4           0.00000   0.00000   0.00000   0.00000   0.00000
           A5           0.00000   0.00000   0.00000   0.00000   0.00000
           A6           0.00000   0.00000   0.00000   0.00000   0.00000
           A7           0.00000   0.00000   0.00000   0.00000   0.00000
           A8           0.00000   0.00000   0.00000   0.00000   0.00000
           D1           0.00000   0.00000   0.00000   0.00000   0.00000
           D2           0.00000   0.00000   0.00000   0.00000   0.00000
           D3           0.00000   0.00000   0.00000   0.00000   0.00000
           D4           0.00000   0.00000   0.00000   0.00000   0.00000
                          R6        A1        A2        A3        A4
           R6           0.57681
           A1           0.00000   0.16000
           A2           0.00000   0.00000   0.16000
           A3           0.00000   0.00000   0.00000   0.16000
           A4           0.00000   0.00000   0.00000   0.00000   0.16000
           A5           0.00000   0.00000   0.00000   0.00000   0.00000
           A6           0.00000   0.00000   0.00000   0.00000   0.00000
           A7           0.00000   0.00000   0.00000   0.00000   0.00000
           A8           0.00000   0.00000   0.00000   0.00000   0.00000
           D1           0.00000   0.00000   0.00000   0.00000   0.00000
           D2           0.00000   0.00000   0.00000   0.00000   0.00000
           D3           0.00000   0.00000   0.00000   0.00000   0.00000
           D4           0.00000   0.00000   0.00000   0.00000   0.00000
                          A5        A6        A7        A8        D1
           A5           0.16000
           A6           0.00000   0.16000
           A7           0.00000   0.00000   0.03612
           A8           0.00000   0.00000   0.00000   0.03612
           D1           0.00000   0.00000   0.00000   0.00000   0.00230
           D2           0.00000   0.00000   0.00000   0.00000   0.00000
           D3           0.00000   0.00000   0.00000   0.00000   0.00000
           D4           0.00000   0.00000   0.00000   0.00000   0.00000
                          D2        D3        D4
           D2           0.00230
           D3           0.00000   0.00230
           D4           0.00000   0.00000   0.00230
 ITU=  0
     Eigenvalues ---    0.00230   0.00858   0.03075   0.03527   0.05153
     Eigenvalues ---    0.05704   0.16000   0.16000   0.16000   0.16000
     Eigenvalues ---    0.19001   0.57680   0.57681   0.57681   0.57681
 RFO step:  Lambda=-1.87088839D-02 EMin= 2.30000000D-03
 Linear search not attempted -- first point.
 Maximum step size (   0.300) exceeded in Quadratic search.
    -- Step size scaled by   0.898
 Iteration  1 RMS(Cart)=  0.14409402 RMS(Int)=  0.01102394
 Iteration  2 RMS(Cart)=  0.00670087 RMS(Int)=  0.00735997
 Iteration  3 RMS(Cart)=  0.00005106 RMS(Int)=  0.00735981
 Iteration  4 RMS(Cart)=  0.00000033 RMS(Int)=  0.00735981
 Variable       Old X    -DE/DX   Delta X   Delta X   Delta X     New X
                                 (Linear)    (Quad)   (Total)
    R1        7.34197   0.00529   0.00000   0.17449   0.17447   7.51644
    R2        3.56225   0.00949   0.00000   0.04050   0.04061   3.60286
    R3        1.79524   0.02943   0.00000   0.04437   0.04437   1.83961
    R4        1.79524   0.02925   0.00000   0.04410   0.04410   1.83934
    R5        1.79524   0.02494   0.00000   0.03760   0.03760   1.83284
    R6        1.79524   0.02451   0.00000   0.03710   0.03694   1.83218
    A1        1.91063   0.01062   0.00000   0.06833   0.06539   1.97603
    A2        1.91063   0.01122   0.00000   0.07067   0.06783   1.97847
    A3        1.91063  -0.00435   0.00000   0.00813   0.00328   1.91392
    A4        1.91063   0.02215   0.00000   0.14138   0.12773   2.03836
    A5        1.91063   0.02220   0.00000   0.14356   0.12950   2.04013
    A6        1.91063  -0.01114   0.00000   0.00424  -0.01519   1.89544
    A7        3.09170  -0.00402   0.00000  -0.02094  -0.02431   3.06738
    A8        2.96200   0.00168   0.00000   0.00078   0.00385   2.96585
    D1        3.14159  -0.01054   0.00000  -0.14181  -0.14951   2.99208
    D2       -1.03013   0.00333   0.00000   0.04392   0.04805  -0.98209
    D3       -1.05614  -0.00355   0.00000  -0.05178  -0.05594  -1.11209
    D4        1.05531   0.01032   0.00000   0.13395   0.14162   1.19693
         Item               Value     Threshold  Converged?
 Maximum Force            0.029426     0.000450     NO 
 RMS     Force            0.016138     0.000300     NO 
 Maximum Displacement     0.294009     0.001800     NO 
 RMS     Displacement     0.142055     0.001200     NO 
 Predicted change in Energy=-1.090338D-02
 GradGradGradGradGradGradGradGradGradGradGradGradGradGradGradGradGradGrad

                          Input orientation:                          
 ---------------------------------------------------------------------
 Center     Atomic      Atomic             Coordinates (Angstroms)
 Number     Number       Type             X           Y           Z
 ---------------------------------------------------------------------
      1         29           0       -0.031159    0.018667   -0.016796
      2          8           0        0.018038    0.020301    3.960430
      3          8           0        0.133081    0.045114   -1.916077
      4          1           0       -0.686958   -0.039758   -2.426995
      5          1           0        0.664381    0.759289   -2.300390
      6          1           0        0.916342   -0.022070    4.333139
      7          1           0       -0.463940    0.769800    4.352013
 ---------------------------------------------------------------------
                    Distance matrix (angstroms):
                    1          2          3          4          5
     1  Cu   0.000000
     2  O    3.977530   0.000000
     3  O    1.906553   5.877685   0.000000
     4  H    2.498509   6.426494   0.969899   0.000000
     5  H    2.499420   6.337328   0.969548   1.575000   0.000000
     6  H    4.452118   0.973478   6.298469   6.947683   6.684139
     7  H    4.453986   0.973338   6.338025   6.830818   6.747420
                    6          7
     6  H    0.000000
     7  H    1.591412   0.000000
 Stoichiometry    CuH4O2(2+,2)
 Framework group  C1[X(CuH4O2)]
 Deg. of freedom    15
 Full point group                 C1      NOp   1
 Largest Abelian subgroup         C1      NOp   1
 Largest concise Abelian subgroup C1      NOp   1
                         Standard orientation:                         
 ---------------------------------------------------------------------
 Center     Atomic      Atomic             Coordinates (Angstroms)
 Number     Number       Type             X           Y           Z
 ---------------------------------------------------------------------
      1         29           0       -0.421566   -0.049362   -0.025346
      2          8           0        3.555730   -0.008791   -0.040094
      3          8           0       -2.320477    0.120957   -0.017066
      4          1           0       -2.833062   -0.701896    0.012500
      5          1           0       -2.701937    0.745939    0.618473
      6          1           0        3.929902    0.874440   -0.206094
      7          1           0        3.948478   -0.384317    0.767444
 ---------------------------------------------------------------------
 Rotational constants (GHZ):    147.5731835      1.4557952      1.4504663
 Standard basis: 6-311G(d) (5D, 7F)
 There are   102 symmetry adapted cartesian basis functions of A   symmetry.
 There are    94 symmetry adapted basis functions of A   symmetry.
    94 basis functions,   165 primitive gaussians,   102 cartesian basis functions
    24 alpha electrons       23 beta electrons
       nuclear repulsion energy       141.2712399118 Hartrees.
 NAtoms=    7 NActive=    7 NUniq=    7 SFac= 1.00D+00 NAtFMM=   60 NAOKFM=F Big=F
 Integral buffers will be    131072 words long.
 Raffenetti 2 integral format.
 Two-electron integral symmetry is turned on.
 One-electron integrals computed using PRISM.
 NBasis=    94 RedAO= T EigKep=  9.37D-03  NBF=    94
 NBsUse=    94 1.00D-06 EigRej= -1.00D+00 NBFU=    94
 Initial guess from the checkpoint file:  "pescuh2o2.chk"
 B after Tr=     0.000000    0.000000    0.000000
         Rot=    0.999872    0.015969    0.000102    0.000307 Ang=   1.83 deg.
 Initial guess <Sx>= 0.0000 <Sy>= 0.0000 <Sz>= 0.5000 <S**2>= 0.7682 S= 0.5091
 ExpMin= 4.08D-02 ExpMax= 3.37D+05 ExpMxC= 1.14D+04 IAcc=2 IRadAn=         4 AccDes= 0.00D+00
 Harris functional with IExCor=  402 and IRadAn=       4 diagonalized for initial guess.
 HarFok:  IExCor=  402 AccDes= 0.00D+00 IRadAn=         4 IDoV= 1 UseB2=F ITyADJ=14
 ICtDFT=  3500011 ScaDFX=  1.000000  1.000000  1.000000  1.000000
 FoFCou: FMM=F IPFlag=           0 FMFlag=      100000 FMFlg1=           0
         NFxFlg=           0 DoJE=T BraDBF=F KetDBF=T FulRan=T
         wScrn=  0.000000 ICntrl=     500 IOpCl=  0 I1Cent=   200000004 NGrid=           0
         NMat0=    1 NMatS0=      1 NMatT0=    0 NMatD0=    1 NMtDS0=    0 NMtDT0=    0
 Petite list used in FoFCou.
 Keep R1 and R2 ints in memory in canonical form, NReq=21960368.
 Requested convergence on RMS density matrix=1.00D-08 within  64 cycles.
 Requested convergence on MAX density matrix=1.00D-06.
 Requested convergence on             energy=1.00D-06.
 No special actions if energy rises.
 SCF Done:  E(UB3LYP) =  -1792.53952507     A.U. after   23 cycles
            NFock= 23  Conv=0.14D-08     -V/T= 2.0006
 <Sx>= 0.0000 <Sy>= 0.0000 <Sz>= 0.5000 <S**2>= 0.7660 S= 0.5079
 <L.S>= 0.000000000000E+00
 Annihilation of the first spin contaminant:
 S**2 before annihilation     0.7660,   after     0.7500
 QCSCF skips out because SCF is already converged.
 Calling FoFJK, ICntrl=      2127 FMM=F ISym2X=0 I1Cent= 0 IOpClX= 1 NMat=1 NMatS=1 NMatT=0.
 ***** Axes restored to original set *****
 -------------------------------------------------------------------
 Center     Atomic                   Forces (Hartrees/Bohr)
 Number     Number              X              Y              Z
 -------------------------------------------------------------------
      1       29           0.000896196   -0.004974981   -0.005967125
      2        8           0.000210342    0.000657864   -0.011937698
      3        8          -0.006174880    0.008843206    0.016082945
      4        1           0.001418879   -0.003128761   -0.007470533
      5        1           0.002945298   -0.002087711   -0.007589504
      6        1           0.002633252   -0.001014759    0.008339664
      7        1          -0.001929088    0.001705142    0.008542251
 -------------------------------------------------------------------
 Cartesian Forces:  Max     0.016082945 RMS     0.006453114

 GradGradGradGradGradGradGradGradGradGradGradGradGradGradGradGradGradGrad
 Berny optimization.
 Using GEDIIS/GDIIS optimizer.
 FormGI is forming the generalized inverse of G from B-inverse, IUseBI=4.
 Internal  Forces:  Max     0.009146532 RMS     0.005809358
 Search for a local minimum.
 Step number   2 out of a maximum of  100
 All quantities printed in internal units (Hartrees-Bohrs-Radians)
 Mixed Optimization -- RFO/linear search
 Update second derivatives using D2CorX and points    1    2
 DE= -1.18D-02 DEPred=-1.09D-02 R= 1.08D+00
 TightC=F SS=  1.41D+00  RLast= 3.60D-01 DXNew= 5.0454D-01 1.0793D+00
 Trust test= 1.08D+00 RLast= 3.60D-01 DXMaxT set to 5.05D-01
 The second derivative matrix:
                          R1        R2        R3        R4        R5
           R1           0.00839
           R2          -0.00062   0.19678
           R3          -0.00248   0.00968   0.58008
           R4          -0.00246   0.00957   0.00312   0.57979
           R5          -0.00203   0.01025   0.00738   0.00723   0.58733
           R6          -0.00199   0.01008   0.00728   0.00712   0.01036
           A1          -0.00131  -0.00495  -0.01873  -0.01863  -0.01550
           A2          -0.00136  -0.00503  -0.01920  -0.01910  -0.01587
           A3          -0.00001   0.00140   0.00277   0.00275   0.00265
           A4          -0.00218   0.00179  -0.01079  -0.01080  -0.00647
           A5          -0.00222   0.00145  -0.01174  -0.01175  -0.00730
           A6           0.00013  -0.00415  -0.00760  -0.00753  -0.00743
           A7           0.00010   0.00004   0.00074   0.00073   0.00053
           A8          -0.00003  -0.00030  -0.00077  -0.00077  -0.00069
           D1          -0.00008  -0.00347  -0.00758  -0.00752  -0.00706
           D2           0.00006   0.00210   0.00464   0.00460   0.00430
           D3          -0.00006  -0.00214  -0.00473  -0.00469  -0.00439
           D4           0.00008   0.00343   0.00749   0.00743   0.00697
                          R6        A1        A2        A3        A4
           R6           0.58700
           A1          -0.01522   0.15073
           A2          -0.01559  -0.00960   0.15006
           A3           0.00261  -0.00017  -0.00016   0.16023
           A4          -0.00634  -0.01604  -0.01650   0.00135   0.14362
           A5          -0.00716  -0.01632  -0.01680   0.00131  -0.01707
           A6          -0.00730   0.00119   0.00119  -0.00074  -0.00320
           A7           0.00052   0.00071   0.00073  -0.00004   0.00086
           A8          -0.00068  -0.00017  -0.00017  -0.00004  -0.00052
           D1          -0.00693  -0.00036  -0.00040  -0.00053  -0.00422
           D2           0.00423   0.00029   0.00032   0.00031   0.00263
           D3          -0.00431  -0.00029  -0.00031  -0.00032  -0.00268
           D4           0.00685   0.00036   0.00041   0.00052   0.00418
                          A5        A6        A7        A8        D1
           A5           0.14223
           A6          -0.00307   0.16228
           A7           0.00089   0.00008   0.03608
           A8          -0.00052   0.00013   0.00002   0.03612
           D1          -0.00417   0.00172   0.00014   0.00007   0.00343
           D2           0.00261  -0.00102  -0.00009  -0.00004  -0.00067
           D3          -0.00265   0.00105   0.00009   0.00004   0.00068
           D4           0.00413  -0.00169  -0.00014  -0.00007  -0.00112
                          D2        D3        D4
           D2           0.00269
           D3          -0.00040   0.00271
           D4           0.00066  -0.00067   0.00340
 ITU=  1  0
 Use linear search instead of GDIIS.
     Eigenvalues ---    0.00230   0.00823   0.02501   0.03223   0.03945
     Eigenvalues ---    0.04319   0.12790   0.16000   0.16000   0.16609
     Eigenvalues ---    0.19740   0.57451   0.57681   0.57681   0.61145
 RFO step:  Lambda=-7.88635329D-03 EMin= 2.30007434D-03
 Quartic linear search produced a step of  0.99101.
 Iteration  1 RMS(Cart)=  0.15204935 RMS(Int)=  0.10381394
 Iteration  2 RMS(Cart)=  0.06293512 RMS(Int)=  0.05550739
 Iteration  3 RMS(Cart)=  0.06117781 RMS(Int)=  0.02142019
 Iteration  4 RMS(Cart)=  0.00557507 RMS(Int)=  0.02099481
 Iteration  5 RMS(Cart)=  0.00000347 RMS(Int)=  0.02099481
 Iteration  6 RMS(Cart)=  0.00000005 RMS(Int)=  0.02099481
 Variable       Old X    -DE/DX   Delta X   Delta X   Delta X     New X
                                 (Linear)    (Quad)   (Total)
    R1        7.51644   0.00494   0.17290   0.43731   0.61016   8.12661
    R2        3.60286  -0.00105   0.04025  -0.04829  -0.00779   3.59507
    R3        1.83961   0.00569   0.04397  -0.02248   0.02149   1.86109
    R4        1.83934   0.00570   0.04371  -0.02219   0.02152   1.86086
    R5        1.83284   0.00303   0.03727  -0.02497   0.01229   1.84514
    R6        1.83218   0.00297   0.03661  -0.02442   0.01194   1.84412
    A1        1.97603   0.00870   0.06481   0.07611   0.12097   2.09700
    A2        1.97847   0.00915   0.06722   0.07751   0.12520   2.10366
    A3        1.91392  -0.00589   0.00325  -0.00502  -0.02687   1.88704
    A4        2.03836   0.00839   0.12658   0.03349   0.11690   2.15526
    A5        2.04013   0.00857   0.12834   0.03660   0.12141   2.16154
    A6        1.89544  -0.00605  -0.01506   0.04148  -0.02128   1.87416
    A7        3.06738  -0.00353  -0.02410  -0.02882  -0.05937   3.00802
    A8        2.96585   0.00186   0.00381   0.01491   0.02549   2.99134
    D1        2.99208  -0.00730  -0.14817  -0.13612  -0.29852   2.69356
    D2       -0.98209   0.00143   0.04761   0.00426   0.05303  -0.92906
    D3       -1.11209  -0.00160  -0.05544  -0.02303  -0.07982  -1.19190
    D4        1.19693   0.00713   0.14035   0.11735   0.27173   1.46866
         Item               Value     Threshold  Converged?
 Maximum Force            0.009147     0.000450     NO 
 RMS     Force            0.005809     0.000300     NO 
 Maximum Displacement     0.566786     0.001800     NO 
 RMS     Displacement     0.270229     0.001200     NO 
 Predicted change in Energy=-6.946072D-03
 GradGradGradGradGradGradGradGradGradGradGradGradGradGradGradGradGradGrad

                          Input orientation:                          
 ---------------------------------------------------------------------
 Center     Atomic      Atomic             Coordinates (Angstroms)
 Number     Number       Type             X           Y           Z
 ---------------------------------------------------------------------
      1         29           0       -0.104525    0.044688   -0.160537
      2          8           0        0.063356    0.082582    4.136433
      3          8           0        0.081069    0.117976   -2.052473
      4          1           0       -0.640164   -0.100279   -2.673400
      5          1           0        0.691796    0.721904   -2.515723
      6          1           0        0.922535   -0.050441    4.599081
      7          1           0       -0.464282    0.734912    4.651943
 ---------------------------------------------------------------------
                    Distance matrix (angstroms):
                    1          2          3          4          5
     1  Cu   0.000000
     2  O    4.300415   0.000000
     3  O    1.902430   6.189033   0.000000
     4  H    2.573404   6.848519   0.976404   0.000000
     5  H    2.576752   6.712291   0.975867   1.573202   0.000000
     6  H    4.870099   0.984849   6.706683   7.438649   7.160320
     7  H    4.875018   0.984727   6.754792   7.374899   7.260311
                    6          7
     6  H    0.000000
     7  H    1.594627   0.000000
 Stoichiometry    CuH4O2(2+,2)
 Framework group  C1[X(CuH4O2)]
 Deg. of freedom    15
 Full point group                 C1      NOp   1
 Largest Abelian subgroup         C1      NOp   1
 Largest concise Abelian subgroup C1      NOp   1
                         Standard orientation:                         
 ---------------------------------------------------------------------
 Center     Atomic      Atomic             Coordinates (Angstroms)
 Number     Number       Type             X           Y           Z
 ---------------------------------------------------------------------
      1         29           0       -0.490051   -0.074450   -0.025782
      2          8           0        3.809272    0.022423   -0.022498
      3          8           0       -2.378250    0.154630    0.012509
      4          1           0       -3.012226   -0.583761   -0.066336
      5          1           0       -2.828689    0.875713    0.491529
      6          1           0        4.285997    0.833234   -0.314470
      7          1           0        4.318207   -0.382551    0.716872
 ---------------------------------------------------------------------
 Rotational constants (GHZ):    140.5520067      1.2865055      1.2806893
 Standard basis: 6-311G(d) (5D, 7F)
 There are   102 symmetry adapted cartesian basis functions of A   symmetry.
 There are    94 symmetry adapted basis functions of A   symmetry.
    94 basis functions,   165 primitive gaussians,   102 cartesian basis functions
    24 alpha electrons       23 beta electrons
       nuclear repulsion energy       137.5072950889 Hartrees.
 NAtoms=    7 NActive=    7 NUniq=    7 SFac= 1.00D+00 NAtFMM=   60 NAOKFM=F Big=F
 Integral buffers will be    131072 words long.
 Raffenetti 2 integral format.
 Two-electron integral symmetry is turned on.
 One-electron integrals computed using PRISM.
 NBasis=    94 RedAO= T EigKep=  9.37D-03  NBF=    94
 NBsUse=    94 1.00D-06 EigRej= -1.00D+00 NBFU=    94
 Initial guess from the checkpoint file:  "pescuh2o2.chk"
 B after Tr=     0.000000    0.000000    0.000000
         Rot=    0.999579    0.029001   -0.000502    0.001175 Ang=   3.33 deg.
 Initial guess <Sx>= 0.0000 <Sy>= 0.0000 <Sz>= 0.5000 <S**2>= 0.7660 S= 0.5079
 ExpMin= 4.08D-02 ExpMax= 3.37D+05 ExpMxC= 1.14D+04 IAcc=2 IRadAn=         4 AccDes= 0.00D+00
 Harris functional with IExCor=  402 and IRadAn=       4 diagonalized for initial guess.
 HarFok:  IExCor=  402 AccDes= 0.00D+00 IRadAn=         4 IDoV= 1 UseB2=F ITyADJ=14
 ICtDFT=  3500011 ScaDFX=  1.000000  1.000000  1.000000  1.000000
 FoFCou: FMM=F IPFlag=           0 FMFlag=      100000 FMFlg1=           0
         NFxFlg=           0 DoJE=T BraDBF=F KetDBF=T FulRan=T
         wScrn=  0.000000 ICntrl=     500 IOpCl=  0 I1Cent=   200000004 NGrid=           0
         NMat0=    1 NMatS0=      1 NMatT0=    0 NMatD0=    1 NMtDS0=    0 NMtDT0=    0
 Petite list used in FoFCou.
 Keep R1 and R2 ints in memory in canonical form, NReq=21959850.
 Requested convergence on RMS density matrix=1.00D-08 within  64 cycles.
 Requested convergence on MAX density matrix=1.00D-06.
 Requested convergence on             energy=1.00D-06.
 No special actions if energy rises.
 SCF Done:  E(UB3LYP) =  -1792.54846395     A.U. after   24 cycles
            NFock= 24  Conv=0.21D-08     -V/T= 2.0007
 <Sx>= 0.0000 <Sy>= 0.0000 <Sz>= 0.5000 <S**2>= 0.7634 S= 0.5067
 <L.S>= 0.000000000000E+00
 Annihilation of the first spin contaminant:
 S**2 before annihilation     0.7634,   after     0.7500
 QCSCF skips out because SCF is already converged.
 Calling FoFJK, ICntrl=      2127 FMM=F ISym2X=0 I1Cent= 0 IOpClX= 1 NMat=1 NMatS=1 NMatT=0.
 ***** Axes restored to original set *****
 -------------------------------------------------------------------
 Center     Atomic                   Forces (Hartrees/Bohr)
 Number     Number              X              Y              Z
 -------------------------------------------------------------------
      1       29           0.000197921   -0.001792739   -0.008089466
      2        8           0.003714233    0.006281687    0.002443712
      3        8          -0.003942628    0.006934167   -0.002489044
      4        1           0.003887089   -0.001587704    0.003359037
      5        1          -0.000760863   -0.004296793    0.002623670
      6        1          -0.004733681   -0.000997043    0.001161828
      7        1           0.001637928   -0.004541575    0.000990261
 -------------------------------------------------------------------
 Cartesian Forces:  Max     0.008089466 RMS     0.003789843

 GradGradGradGradGradGradGradGradGradGradGradGradGradGradGradGradGradGrad
 Berny optimization.
 Using GEDIIS/GDIIS optimizer.
 FormGI is forming the generalized inverse of G from B-inverse, IUseBI=4.
 Internal  Forces:  Max     0.004640266 RMS     0.003075251
 Search for a local minimum.
 Step number   3 out of a maximum of  100
 All quantities printed in internal units (Hartrees-Bohrs-Radians)
 Mixed Optimization -- RFO/linear search
 Update second derivatives using D2CorX and points    2    3
 DE= -8.94D-03 DEPred=-6.95D-03 R= 1.29D+00
 TightC=F SS=  1.41D+00  RLast= 7.81D-01 DXNew= 8.4853D-01 2.3426D+00
 Trust test= 1.29D+00 RLast= 7.81D-01 DXMaxT set to 8.49D-01
 The second derivative matrix:
                          R1        R2        R3        R4        R5
           R1           0.00683
           R2          -0.00057   0.19766
           R3          -0.00533   0.01284   0.58575
           R4          -0.00532   0.01271   0.00870   0.58527
           R5          -0.00372   0.01295   0.01363   0.01339   0.59351
           R6          -0.00363   0.01269   0.01332   0.01309   0.01633
           A1          -0.00538  -0.00325  -0.02058  -0.02053  -0.01511
           A2          -0.00559  -0.00325  -0.02108  -0.02103  -0.01543
           A3           0.00118   0.00043   0.00163   0.00164   0.00110
           A4          -0.00612   0.00461  -0.00841  -0.00851  -0.00252
           A5          -0.00629   0.00431  -0.00951  -0.00960  -0.00341
           A6           0.00181  -0.00669  -0.01331  -0.01316  -0.01314
           A7           0.00070  -0.00039   0.00035   0.00036  -0.00009
           A8          -0.00025  -0.00014  -0.00064  -0.00064  -0.00047
           D1           0.00091  -0.00467  -0.00989  -0.00979  -0.00951
           D2          -0.00044   0.00281   0.00618   0.00612   0.00587
           D3           0.00048  -0.00286  -0.00626  -0.00620  -0.00596
           D4          -0.00088   0.00461   0.00981   0.00971   0.00942
                          R6        A1        A2        A3        A4
           R6           0.59279
           A1          -0.01485   0.14298
           A2          -0.01516  -0.01763   0.14174
           A3           0.00110   0.00123   0.00128   0.16034
           A4          -0.00252  -0.02139  -0.02203   0.00143   0.14211
           A5          -0.00340  -0.02197  -0.02263   0.00147  -0.01883
           A6          -0.01283   0.00107   0.00103   0.00066  -0.00668
           A7          -0.00008   0.00151   0.00156  -0.00005   0.00107
           A8          -0.00046  -0.00047  -0.00048  -0.00003  -0.00060
           D1          -0.00931   0.00011   0.00007  -0.00003  -0.00535
           D2           0.00574   0.00024   0.00028  -0.00005   0.00353
           D3          -0.00583  -0.00018  -0.00022   0.00004  -0.00353
           D4           0.00922  -0.00005   0.00000   0.00001   0.00534
                          A5        A6        A7        A8        D1
           A5           0.14021
           A6          -0.00648   0.16756
           A7           0.00113   0.00063   0.03605
           A8          -0.00062  -0.00007   0.00003   0.03612
           D1          -0.00525   0.00397   0.00032   0.00000   0.00436
           D2           0.00348  -0.00247  -0.00023   0.00001  -0.00128
           D3          -0.00348   0.00249   0.00023  -0.00001   0.00129
           D4           0.00525  -0.00394  -0.00033   0.00000  -0.00205
                          D2        D3        D4
           D2           0.00308
           D3          -0.00079   0.00310
           D4           0.00127  -0.00128   0.00433
 ITU=  1  1  0
 Use linear search instead of GDIIS.
 Linear search step of   0.875 exceeds DXMaxT=   0.849 but not scaled.
 Quartic linear search produced a step of  1.31970.
 Iteration  1 RMS(Cart)=  0.13912635 RMS(Int)=  0.15831788
 Iteration  2 RMS(Cart)=  0.07783248 RMS(Int)=  0.10326384
 Iteration  3 RMS(Cart)=  0.05983340 RMS(Int)=  0.06042232
 Iteration  4 RMS(Cart)=  0.06163324 RMS(Int)=  0.03303600
 Iteration  5 RMS(Cart)=  0.00471225 RMS(Int)=  0.03283977
 Iteration  6 RMS(Cart)=  0.00000351 RMS(Int)=  0.03283977
 Iteration  7 RMS(Cart)=  0.00000001 RMS(Int)=  0.03283977
 Variable       Old X    -DE/DX   Delta X   Delta X   Delta X     New X
                                 (Linear)    (Quad)   (Total)
    R1        8.12661   0.00461   0.80523   0.00000   0.80517   8.93177
    R2        3.59507  -0.00346  -0.01028   0.00000  -0.01008   3.58499
    R3        1.86109  -0.00344   0.02836   0.00000   0.02836   1.88945
    R4        1.86086  -0.00336   0.02840   0.00000   0.02840   1.88927
    R5        1.84514  -0.00464   0.01622   0.00000   0.01622   1.86136
    R6        1.84412  -0.00445   0.01576   0.00000   0.01570   1.85982
    A1        2.09700   0.00347   0.15965   0.00000   0.11403   2.21103
    A2        2.10366   0.00367   0.16523   0.00000   0.12000   2.22366
    A3        1.88704  -0.00304  -0.03547   0.00000  -0.08396   1.80308
    A4        2.15526   0.00006   0.15427   0.00000   0.08893   2.24419
    A5        2.16154   0.00014   0.16022   0.00000   0.09510   2.25665
    A6        1.87416   0.00119  -0.02808   0.00000  -0.09336   1.78079
    A7        3.00802  -0.00225  -0.07834   0.00000  -0.08225   2.92577
    A8        2.99134   0.00139   0.03364   0.00000   0.03617   3.02751
    D1        2.69356  -0.00386  -0.39395   0.00000  -0.40103   2.29253
    D2       -0.92906  -0.00060   0.06998   0.00000   0.06504  -0.86402
    D3       -1.19190   0.00047  -0.10533   0.00000  -0.10073  -1.29264
    D4        1.46866   0.00374   0.35860   0.00000   0.36533   1.83400
         Item               Value     Threshold  Converged?
 Maximum Force            0.004640     0.000450     NO 
 RMS     Force            0.003075     0.000300     NO 
 Maximum Displacement     0.660617     0.001800     NO 
 RMS     Displacement     0.319846     0.001200     NO 
 Predicted change in Energy=-1.913922D-03
 GradGradGradGradGradGradGradGradGradGradGradGradGradGradGradGradGradGrad

                          Input orientation:                          
 ---------------------------------------------------------------------
 Center     Atomic      Atomic             Coordinates (Angstroms)
 Number     Number       Type             X           Y           Z
 ---------------------------------------------------------------------
      1         29           0       -0.230775    0.083279   -0.354271
      2          8           0        0.120692    0.163116    4.358458
      3          8           0        0.018750    0.195544   -2.231531
      4          1           0       -0.553662   -0.160549   -2.949684
      5          1           0        0.717610    0.665908   -2.740406
      6          1           0        0.927815   -0.068529    4.901230
      7          1           0       -0.450645    0.672575    5.001527
 ---------------------------------------------------------------------
                    Distance matrix (angstroms):
                    1          2          3          4          5
     1  Cu   0.000000
     2  O    4.726490   0.000000
     3  O    1.897095   6.590856   0.000000
     4  H    2.626762   7.346322   0.984988   0.000000
     5  H    2.632970   7.141636   0.984176   1.530674   0.000000
     6  H    5.383834   0.999855   7.195305   7.989999   7.679725
     7  H    5.392604   0.999756   7.263952   7.995402   7.829583
                    6          7
     6  H    0.000000
     7  H    1.568263   0.000000
 Stoichiometry    CuH4O2(2+,2)
 Framework group  C1[X(CuH4O2)]
 Deg. of freedom    15
 Full point group                 C1      NOp   1
 Largest Abelian subgroup         C1      NOp   1
 Largest concise Abelian subgroup C1      NOp   1
                         Standard orientation:                         
 ---------------------------------------------------------------------
 Center     Atomic      Atomic             Coordinates (Angstroms)
 Number     Number       Type             X           Y           Z
 ---------------------------------------------------------------------
      1         29           0       -0.582461   -0.115510   -0.020489
      2          8           0        4.140345    0.070632   -0.007684
      3          8           0       -2.448656    0.220773    0.036101
      4          1           0       -3.189377   -0.385247   -0.196864
      5          1           0       -2.928809    1.019069    0.353555
      6          1           0        4.710694    0.793077   -0.398179
      7          1           0        4.765343   -0.408336    0.608336
 ---------------------------------------------------------------------
 Rotational constants (GHZ):    114.4714122      1.1084303      1.1013275
 Standard basis: 6-311G(d) (5D, 7F)
 There are   102 symmetry adapted cartesian basis functions of A   symmetry.
 There are    94 symmetry adapted basis functions of A   symmetry.
    94 basis functions,   165 primitive gaussians,   102 cartesian basis functions
    24 alpha electrons       23 beta electrons
       nuclear repulsion energy       133.5544995015 Hartrees.
 NAtoms=    7 NActive=    7 NUniq=    7 SFac= 1.00D+00 NAtFMM=   60 NAOKFM=F Big=F
 Integral buffers will be    131072 words long.
 Raffenetti 2 integral format.
 Two-electron integral symmetry is turned on.
 One-electron integrals computed using PRISM.
 NBasis=    94 RedAO= T EigKep=  9.37D-03  NBF=    94
 NBsUse=    94 1.00D-06 EigRej= -1.00D+00 NBFU=    94
 Initial guess from the checkpoint file:  "pescuh2o2.chk"
 B after Tr=     0.000000    0.000000    0.000000
         Rot=    0.999789    0.020466   -0.000563    0.001783 Ang=   2.36 deg.
 Initial guess <Sx>= 0.0000 <Sy>= 0.0000 <Sz>= 0.5000 <S**2>= 0.7633 S= 0.5066
 ExpMin= 4.08D-02 ExpMax= 3.37D+05 ExpMxC= 1.14D+04 IAcc=2 IRadAn=         4 AccDes= 0.00D+00
 Harris functional with IExCor=  402 and IRadAn=       4 diagonalized for initial guess.
 HarFok:  IExCor=  402 AccDes= 0.00D+00 IRadAn=         4 IDoV= 1 UseB2=F ITyADJ=14
 ICtDFT=  3500011 ScaDFX=  1.000000  1.000000  1.000000  1.000000
 FoFCou: FMM=F IPFlag=           0 FMFlag=      100000 FMFlg1=           0
         NFxFlg=           0 DoJE=T BraDBF=F KetDBF=T FulRan=T
         wScrn=  0.000000 ICntrl=     500 IOpCl=  0 I1Cent=   200000004 NGrid=           0
         NMat0=    1 NMatS0=      1 NMatT0=    0 NMatD0=    1 NMtDS0=    0 NMtDT0=    0
 Petite list used in FoFCou.
 Keep R1 and R2 ints in memory in canonical form, NReq=21958959.
 Requested convergence on RMS density matrix=1.00D-08 within  64 cycles.
 Requested convergence on MAX density matrix=1.00D-06.
 Requested convergence on             energy=1.00D-06.
 No special actions if energy rises.
 SCF Done:  E(UB3LYP) =  -1792.55185352     A.U. after   28 cycles
            NFock= 28  Conv=0.34D-08     -V/T= 2.0007
 <Sx>= 0.0000 <Sy>= 0.0000 <Sz>= 0.5000 <S**2>= 0.7625 S= 0.5062
 <L.S>= 0.000000000000E+00
 Annihilation of the first spin contaminant:
 S**2 before annihilation     0.7625,   after     0.7500
 QCSCF skips out because SCF is already converged.
 Calling FoFJK, ICntrl=      2127 FMM=F ISym2X=0 I1Cent= 0 IOpClX= 1 NMat=1 NMatS=1 NMatT=0.
 ***** Axes restored to original set *****
 -------------------------------------------------------------------
 Center     Atomic                   Forces (Hartrees/Bohr)
 Number     Number              X              Y              Z
 -------------------------------------------------------------------
      1       29           0.000324287   -0.000268016   -0.007999335
      2        8           0.006341229    0.007829506    0.027837679
      3        8           0.002179432    0.002830746   -0.029120488
      4        1          -0.000605084   -0.000887877    0.016617830
      5        1          -0.002355446   -0.001986087    0.016106613
      6        1          -0.008776534   -0.000637942   -0.011303455
      7        1           0.002892116   -0.006880330   -0.012138844
 -------------------------------------------------------------------
 Cartesian Forces:  Max     0.029120488 RMS     0.011455630

 GradGradGradGradGradGradGradGradGradGradGradGradGradGradGradGradGradGrad
 Berny optimization.
 Using GEDIIS/GDIIS optimizer.
 FormGI is forming the generalized inverse of G from B-inverse, IUseBI=4.
 Internal  Forces:  Max     0.015063792 RMS     0.007585848
 Search for a local minimum.
 Step number   4 out of a maximum of  100
 All quantities printed in internal units (Hartrees-Bohrs-Radians)
 Mixed Optimization -- RFO/linear search
 Update second derivatives using D2CorX and points    3    4
 The second derivative matrix:
                          R1        R2        R3        R4        R5
           R1           0.00661
           R2          -0.00104   0.19663
           R3          -0.00733   0.00817   0.57426
           R4          -0.00731   0.00806  -0.00274   0.57390
           R5          -0.00534   0.00919   0.00336   0.00318   0.58453
           R6          -0.00520   0.00905   0.00328   0.00310   0.00757
           A1          -0.00576  -0.00429  -0.01827  -0.01824  -0.01401
           A2          -0.00603  -0.00445  -0.01916  -0.01913  -0.01467
           A3           0.00260   0.00385   0.00716   0.00714   0.00660
           A4          -0.00667   0.00314  -0.00710  -0.00721  -0.00231
           A5          -0.00689   0.00274  -0.00844  -0.00854  -0.00342
           A6           0.00425  -0.00094  -0.00133  -0.00125  -0.00201
           A7           0.00096   0.00023   0.00139   0.00139   0.00093
           A8          -0.00035  -0.00038  -0.00109  -0.00109  -0.00090
           D1           0.00143  -0.00346  -0.00675  -0.00667  -0.00674
           D2          -0.00076   0.00210   0.00358   0.00353   0.00371
           D3           0.00080  -0.00214  -0.00357  -0.00352  -0.00373
           D4          -0.00139   0.00342   0.00676   0.00668   0.00672
                          R6        A1        A2        A3        A4
           R6           0.58424
           A1          -0.01385   0.14703
           A2          -0.01450  -0.01351   0.14592
           A3           0.00653  -0.00255  -0.00231   0.15927
           A4          -0.00239  -0.01710  -0.01770  -0.00190   0.14654
           A5          -0.00348  -0.01764  -0.01827  -0.00174  -0.01437
           A6          -0.00192  -0.00334  -0.00298  -0.00390  -0.01008
           A7           0.00093   0.00084   0.00093  -0.00027   0.00049
           A8          -0.00089  -0.00024  -0.00027   0.00011  -0.00041
           D1          -0.00660  -0.00038  -0.00031  -0.00162  -0.00556
           D2           0.00365  -0.00003  -0.00008   0.00167   0.00302
           D3          -0.00367   0.00012   0.00017  -0.00175  -0.00300
           D4           0.00658   0.00046   0.00040   0.00154   0.00558
                          A5        A6        A7        A8        D1
           A5           0.14469
           A6          -0.00963   0.15599
           A7           0.00058  -0.00025   0.03600
           A8          -0.00044   0.00034   0.00006   0.03610
           D1          -0.00539   0.00064   0.00003   0.00013   0.00351
           D2           0.00292   0.00060   0.00008  -0.00011  -0.00059
           D3          -0.00289  -0.00068  -0.00010   0.00012   0.00058
           D4           0.00542  -0.00072  -0.00004  -0.00012  -0.00122
                          D2        D3        D4
           D2           0.00264
           D3          -0.00033   0.00263
           D4           0.00059  -0.00059   0.00352
 ITU=  0  1  1  0
 Use linear search instead of GDIIS.
     Eigenvalues ---    0.00230   0.00326   0.00433   0.00749   0.03609
     Eigenvalues ---    0.03623   0.14279   0.16000   0.16003   0.16758
     Eigenvalues ---    0.19726   0.57100   0.57681   0.57681   0.59778
 RFO step:  Lambda=-5.37788208D-03 EMin= 2.29672227D-03
 Quartic linear search produced a step of -0.08029.
 Iteration  1 RMS(Cart)=  0.06676281 RMS(Int)=  0.01169992
 Iteration  2 RMS(Cart)=  0.00942816 RMS(Int)=  0.00215150
 Iteration  3 RMS(Cart)=  0.00005909 RMS(Int)=  0.00215045
 Iteration  4 RMS(Cart)=  0.00000014 RMS(Int)=  0.00215045
 Variable       Old X    -DE/DX   Delta X   Delta X   Delta X     New X
                                 (Linear)    (Quad)   (Total)
    R1        8.93177   0.00441  -0.06464   0.29327   0.22862   9.16040
    R2        3.58499  -0.00362   0.00081  -0.02005  -0.01924   3.56576
    R3        1.88945  -0.01309  -0.00228  -0.02394  -0.02621   1.86324
    R4        1.88927  -0.01295  -0.00228  -0.02370  -0.02598   1.86328
    R5        1.86136  -0.01144  -0.00130  -0.02091  -0.02221   1.83915
    R6        1.85982  -0.01097  -0.00126  -0.02011  -0.02138   1.83845
    A1        2.21103  -0.00316  -0.00916   0.00471  -0.00957   2.20146
    A2        2.22366  -0.00326  -0.00963   0.00367  -0.01107   2.21259
    A3        1.80308   0.00668   0.00674   0.05979   0.06137   1.86445
    A4        2.24419  -0.00746  -0.00714  -0.03820  -0.04649   2.19770
    A5        2.25665  -0.00758  -0.00764  -0.03949  -0.04828   2.20836
    A6        1.78079   0.01506   0.00750   0.08647   0.09280   1.87359
    A7        2.92577  -0.00050   0.00660  -0.00831  -0.00185   2.92391
    A8        3.02751   0.00075  -0.00290   0.01607   0.01318   3.04068
    D1        2.29253  -0.00150   0.03220  -0.26035  -0.22832   2.06421
    D2       -0.86402  -0.00127  -0.00522  -0.03701  -0.04249  -0.90651
    D3       -1.29264   0.00115   0.00809   0.02461   0.03294  -1.25970
    D4        1.83400   0.00138  -0.02933   0.24795   0.21877   2.05277
         Item               Value     Threshold  Converged?
 Maximum Force            0.015064     0.000450     NO 
 RMS     Force            0.007586     0.000300     NO 
 Maximum Displacement     0.119703     0.001800     NO 
 RMS     Displacement     0.075057     0.001200     NO 
 Predicted change in Energy=-3.413414D-03
 GradGradGradGradGradGradGradGradGradGradGradGradGradGradGradGradGradGrad

                          Input orientation:                          
 ---------------------------------------------------------------------
 Center     Atomic      Atomic             Coordinates (Angstroms)
 Number     Number       Type             X           Y           Z
 ---------------------------------------------------------------------
      1         29           0       -0.243405    0.134476   -0.417614
      2          8           0        0.154750    0.218058    4.412756
      3          8           0       -0.000808    0.225760   -2.286643
      4          1           0       -0.555053   -0.211820   -2.956361
      5          1           0        0.739866    0.648847   -2.754473
      6          1           0        0.926748   -0.098515    4.938078
      7          1           0       -0.472313    0.634539    5.049582
 ---------------------------------------------------------------------
                    Distance matrix (angstroms):
                    1          2          3          4          5
     1  Cu   0.000000
     2  O    4.847473   0.000000
     3  O    1.886916   6.701209   0.000000
     4  H    2.581139   7.415693   0.973235   0.000000
     5  H    2.586950   7.203966   0.972864   1.567903   0.000000
     6  H    5.486983   0.985983   7.291235   8.033103   7.731029
     7  H    5.494788   0.986008   7.362717   8.050981   7.897649
                    6          7
     6  H    0.000000
     7  H    1.583406   0.000000
 Stoichiometry    CuH4O2(2+,2)
 Framework group  C1[X(CuH4O2)]
 Deg. of freedom    15
 Full point group                 C1      NOp   1
 Largest Abelian subgroup         C1      NOp   1
 Largest concise Abelian subgroup C1      NOp   1
                         Standard orientation:                         
 ---------------------------------------------------------------------
 Center     Atomic      Atomic             Coordinates (Angstroms)
 Number     Number       Type             X           Y           Z
 ---------------------------------------------------------------------
      1         29           0       -0.610390   -0.115573   -0.015319
      2          8           0        4.232980    0.083026    0.002661
      3          8           0       -2.466770    0.218214    0.038457
      4          1           0       -3.162492   -0.367766   -0.307642
      5          1           0       -2.899766    1.034790    0.342075
      6          1           0        4.788184    0.773520   -0.429922
      7          1           0        4.845707   -0.498843    0.510801
 ---------------------------------------------------------------------
 Rotational constants (GHZ):    113.3662680      1.0685455      1.0616601
 Standard basis: 6-311G(d) (5D, 7F)
 There are   102 symmetry adapted cartesian basis functions of A   symmetry.
 There are    94 symmetry adapted basis functions of A   symmetry.
    94 basis functions,   165 primitive gaussians,   102 cartesian basis functions
    24 alpha electrons       23 beta electrons
       nuclear repulsion energy       133.4523090289 Hartrees.
 NAtoms=    7 NActive=    7 NUniq=    7 SFac= 1.00D+00 NAtFMM=   60 NAOKFM=F Big=F
 Integral buffers will be    131072 words long.
 Raffenetti 2 integral format.
 Two-electron integral symmetry is turned on.
 One-electron integrals computed using PRISM.
 NBasis=    94 RedAO= T EigKep=  9.37D-03  NBF=    94
 NBsUse=    94 1.00D-06 EigRej= -1.00D+00 NBFU=    94
 Initial guess from the checkpoint file:  "pescuh2o2.chk"
 B after Tr=     0.000000    0.000000    0.000000
         Rot=    0.999927   -0.012074   -0.000089    0.000611 Ang=  -1.39 deg.
 Initial guess <Sx>= 0.0000 <Sy>= 0.0000 <Sz>= 0.5000 <S**2>= 0.7624 S= 0.5062
 ExpMin= 4.08D-02 ExpMax= 3.37D+05 ExpMxC= 1.14D+04 IAcc=2 IRadAn=         4 AccDes= 0.00D+00
 Harris functional with IExCor=  402 and IRadAn=       4 diagonalized for initial guess.
 HarFok:  IExCor=  402 AccDes= 0.00D+00 IRadAn=         4 IDoV= 1 UseB2=F ITyADJ=14
 ICtDFT=  3500011 ScaDFX=  1.000000  1.000000  1.000000  1.000000
 FoFCou: FMM=F IPFlag=           0 FMFlag=      100000 FMFlg1=           0
         NFxFlg=           0 DoJE=T BraDBF=F KetDBF=T FulRan=T
         wScrn=  0.000000 ICntrl=     500 IOpCl=  0 I1Cent=   200000004 NGrid=           0
         NMat0=    1 NMatS0=      1 NMatT0=    0 NMatD0=    1 NMtDS0=    0 NMtDT0=    0
 Petite list used in FoFCou.
 Keep R1 and R2 ints in memory in canonical form, NReq=21958878.
 Requested convergence on RMS density matrix=1.00D-08 within  64 cycles.
 Requested convergence on MAX density matrix=1.00D-06.
 Requested convergence on             energy=1.00D-06.
 No special actions if energy rises.
 SCF Done:  E(UB3LYP) =  -1792.55555411     A.U. after   24 cycles
            NFock= 24  Conv=0.53D-08     -V/T= 2.0007
 <Sx>= 0.0000 <Sy>= 0.0000 <Sz>= 0.5000 <S**2>= 0.7626 S= 0.5063
 <L.S>= 0.000000000000E+00
 Annihilation of the first spin contaminant:
 S**2 before annihilation     0.7626,   after     0.7500
 QCSCF skips out because SCF is already converged.
 Calling FoFJK, ICntrl=      2127 FMM=F ISym2X=0 I1Cent= 0 IOpClX= 1 NMat=1 NMatS=1 NMatT=0.
 ***** Axes restored to original set *****
 -------------------------------------------------------------------
 Center     Atomic                   Forces (Hartrees/Bohr)
 Number     Number              X              Y              Z
 -------------------------------------------------------------------
      1       29          -0.000125499   -0.000113339   -0.004822629
      2        8           0.001321890    0.001019366    0.009577302
      3        8           0.001245823   -0.000759583   -0.007456856
      4        1          -0.000268828    0.000696082    0.004017056
      5        1          -0.001223097    0.000052552    0.003875357
      6        1          -0.002387582    0.000549814   -0.002420225
      7        1           0.001437292   -0.001444892   -0.002770005
 -------------------------------------------------------------------
 Cartesian Forces:  Max     0.009577302 RMS     0.003326866

 GradGradGradGradGradGradGradGradGradGradGradGradGradGradGradGradGradGrad
 Berny optimization.
 Using GEDIIS/GDIIS optimizer.
 FormGI is forming the generalized inverse of G from B-inverse, IUseBI=4.
 Internal  Forces:  Max     0.004401849 RMS     0.002084612
 Search for a local minimum.
 Step number   5 out of a maximum of  100
 All quantities printed in internal units (Hartrees-Bohrs-Radians)
 Mixed Optimization -- RFO/linear search
 Update second derivatives using D2CorX and points    4    5
 DE= -3.70D-03 DEPred=-3.41D-03 R= 1.08D+00
 TightC=F SS=  1.41D+00  RLast= 4.18D-01 DXNew= 1.4270D+00 1.2553D+00
 Trust test= 1.08D+00 RLast= 4.18D-01 DXMaxT set to 1.26D+00
 The second derivative matrix:
                          R1        R2        R3        R4        R5
           R1           0.00469
           R2           0.00129   0.19649
           R3           0.00118   0.00613   0.56212
           R4           0.00110   0.00606  -0.01469   0.56212
           R5           0.00212   0.00739  -0.00733  -0.00735   0.57512
           R6           0.00194   0.00735  -0.00686  -0.00689  -0.00136
           A1          -0.00605  -0.00158  -0.00973  -0.00978  -0.00653
           A2          -0.00624  -0.00192  -0.01123  -0.01128  -0.00773
           A3          -0.00410   0.00717   0.02200   0.02179   0.01964
           A4          -0.00291   0.00354  -0.00847  -0.00853  -0.00354
           A5          -0.00304   0.00295  -0.01048  -0.01053  -0.00523
           A6          -0.00642   0.00215   0.01553   0.01538   0.01283
           A7           0.00102   0.00074   0.00291   0.00290   0.00226
           A8          -0.00071  -0.00048  -0.00116  -0.00116  -0.00096
           D1           0.00110  -0.00172  -0.00119  -0.00116  -0.00187
           D2          -0.00040   0.00228   0.00390   0.00386   0.00399
           D3           0.00046  -0.00229  -0.00379  -0.00374  -0.00392
           D4          -0.00104   0.00172   0.00130   0.00127   0.00194
                          R6        A1        A2        A3        A4
           R6           0.57577
           A1          -0.00667   0.14904
           A2          -0.00783  -0.01155   0.14783
           A3           0.01896  -0.00779  -0.00712   0.14451
           A4          -0.00352  -0.01219  -0.01309   0.00234   0.14834
           A5          -0.00516  -0.01279  -0.01373   0.00296  -0.01292
           A6           0.01218  -0.01358  -0.01247  -0.02347  -0.00737
           A7           0.00221   0.00137   0.00143  -0.00110   0.00144
           A8          -0.00095  -0.00076  -0.00076  -0.00018  -0.00070
           D1          -0.00193   0.00073   0.00077  -0.00516  -0.00246
           D2           0.00392   0.00056   0.00048   0.00181   0.00346
           D3          -0.00385  -0.00043  -0.00035  -0.00194  -0.00337
           D4           0.00199  -0.00060  -0.00063   0.00503   0.00256
                          A5        A6        A7        A8        D1
           A5           0.14581
           A6          -0.00611   0.13288
           A7           0.00151  -0.00204   0.03613
           A8          -0.00069   0.00032  -0.00005   0.03614
           D1          -0.00233  -0.00607   0.00033  -0.00019   0.00410
           D2           0.00332   0.00032   0.00021  -0.00017  -0.00022
           D3          -0.00322  -0.00052  -0.00021   0.00017   0.00025
           D4           0.00242   0.00587  -0.00033   0.00019  -0.00178
                          D2        D3        D4
           D2           0.00271
           D3          -0.00040   0.00269
           D4           0.00023  -0.00026   0.00405
 ITU=  1  0  1  1  0
 Use linear search instead of GDIIS.
     Eigenvalues ---    0.00230   0.00242   0.00334   0.00665   0.03591
     Eigenvalues ---    0.03618   0.12174   0.16000   0.16009   0.16360
     Eigenvalues ---    0.19706   0.54983   0.57681   0.57681   0.58104
 RFO step:  Lambda=-2.90742213D-03 EMin= 2.29510228D-03
 Quartic linear search produced a step of  0.54406.
 Iteration  1 RMS(Cart)=  0.06250657 RMS(Int)=  0.12430804
 Iteration  2 RMS(Cart)=  0.06035132 RMS(Int)=  0.07717829
 Iteration  3 RMS(Cart)=  0.06163564 RMS(Int)=  0.03014774
 Iteration  4 RMS(Cart)=  0.03918291 RMS(Int)=  0.00329872
 Iteration  5 RMS(Cart)=  0.00000389 RMS(Int)=  0.00329872
 Iteration  6 RMS(Cart)=  0.00000000 RMS(Int)=  0.00329872
 Variable       Old X    -DE/DX   Delta X   Delta X   Delta X     New X
                                 (Linear)    (Quad)   (Total)
    R1        9.16040   0.00440   0.12439   0.60274   0.72713   9.88753
    R2        3.56576  -0.00046  -0.01047   0.00334  -0.00713   3.55862
    R3        1.86324  -0.00335  -0.01426   0.00471  -0.00956   1.85368
    R4        1.86328  -0.00330  -0.01414   0.00478  -0.00936   1.85393
    R5        1.83915  -0.00292  -0.01208   0.00268  -0.00940   1.82975
    R6        1.83845  -0.00277  -0.01163   0.00277  -0.00886   1.82959
[...]
           D2           0.01109
           D3          -0.00817   0.00952
           D4          -0.00301   0.00221   0.00903
 ITU=  0  0  0  0  0  0  0  0  0  0  0  0  0  0  0  0  0  0 -1
 Use linear search instead of GDIIS.
 Skip linear search -- no minimum in search direction.
 Steepest descent instead of Quadratic search.
 Steepest descent step scaled to max of 0.05000.
 Iteration  1 RMS(Cart)=  0.01783185 RMS(Int)=  0.00012419
 Iteration  2 RMS(Cart)=  0.00015054 RMS(Int)=  0.00000411
 Iteration  3 RMS(Cart)=  0.00000002 RMS(Int)=  0.00000411
 Variable       Old X    -DE/DX   Delta X   Delta X   Delta X     New X
                                 (Linear)    (Quad)   (Total)
    R1      167.32233   0.00003   0.00000   0.00013   0.00013 167.32247
    R2        3.57614  -0.00020   0.00000  -0.00090  -0.00090   3.57525
    R3        1.86216  -0.00024   0.00000  -0.00105  -0.00105   1.86111
    R4        1.86217  -0.00024   0.00000  -0.00105  -0.00105   1.86112
    R5        1.84920  -0.01138   0.00000  -0.05000  -0.05000   1.79920
    R6        1.84380  -0.00882   0.00000  -0.03877  -0.03877   1.80503
    A1        2.00186   0.00002   0.00000   0.00010   0.00010   2.00196
    A2        1.93247   0.00003   0.00000   0.00012   0.00012   1.93259
    A3        1.91516  -0.00004   0.00000  -0.00017  -0.00017   1.91499
    A4        2.18816   0.00032   0.00000   0.00139   0.00138   2.18954
    A5        2.18838   0.00042   0.00000   0.00186   0.00185   2.19023
    A6        1.90664  -0.00075   0.00000  -0.00327  -0.00328   1.90335
    A7        3.26764   0.00019   0.00000   0.00084   0.00084   3.26848
    A8        0.49585   0.00002   0.00000   0.00011   0.00011   0.49596
    D1        1.09502   0.00002   0.00000   0.00009   0.00009   1.09510
    D2       -1.86740   0.00000   0.00000  -0.00002  -0.00002  -1.86742
    D3       -1.07676   0.00000   0.00000   0.00001   0.00001  -1.07676
    D4        2.24400  -0.00002   0.00000  -0.00010  -0.00010   2.24390
         Item               Value     Threshold  Converged?
 Maximum Force            0.011376     0.000450     NO 
 RMS     Force            0.003402     0.000300     NO 
 Maximum Displacement     0.041230     0.001800     NO 
 RMS     Displacement     0.017819     0.001200     NO 
 Predicted change in Energy=-1.106572D-03
 Optimization stopped.
    -- Number of steps exceeded,  NStep= 100
    -- Flag reset to prevent archiving.
                           ----------------------------
                           ! Non-Optimized Parameters !
                           ! (Angstroms and Degrees)  !
 --------------------------                            --------------------------
 ! Name  Definition              Value          Derivative Info.                !
 --------------------------------------------------------------------------------
 ! R1    R(1,2)                 88.5432         -DE/DX =    0.0                 !
 ! R2    R(1,3)                  1.8919         -DE/DX =   -0.0002              !
 ! R3    R(2,6)                  0.9849         -DE/DX =   -0.0002              !
 ! R4    R(2,7)                  0.9849         -DE/DX =   -0.0002              !
 ! R5    R(3,4)                  0.9521         -DE/DX =   -0.0114              !
 ! R6    R(3,5)                  0.9552         -DE/DX =   -0.0088              !
 ! A1    A(1,2,6)              114.7041         -DE/DX =    0.0                 !
 ! A2    A(1,2,7)              110.7293         -DE/DX =    0.0                 !
 ! A3    A(6,2,7)              109.7208         -DE/DX =    0.0                 !
 ! A4    A(1,3,4)              125.4515         -DE/DX =    0.0003              !
 ! A5    A(1,3,5)              125.4911         -DE/DX =    0.0004              !
 ! A6    A(4,3,5)              109.0541         -DE/DX =   -0.0007              !
 ! A7    L(2,1,3,5,-1)         187.2703         -DE/DX =    0.0002              !
 ! A8    L(2,1,3,5,-2)          28.4166         -DE/DX =    0.0                 !
 ! D1    D(6,2,3,4)             62.7447         -DE/DX =    0.0                 !
 ! D2    D(6,2,3,5)           -106.9954         -DE/DX =    0.0                 !
 ! D3    D(7,2,3,4)            -61.6936         -DE/DX =    0.0                 !
 ! D4    D(7,2,3,5)            128.5663         -DE/DX =    0.0                 !
 --------------------------------------------------------------------------------
 GradGradGradGradGradGradGradGradGradGradGradGradGradGradGradGradGradGrad

                          Input orientation:                          
 ---------------------------------------------------------------------
 Center     Atomic      Atomic             Coordinates (Angstroms)
 Number     Number       Type             X           Y           Z
 ---------------------------------------------------------------------
      1         29           0       -0.354208    0.361261  -36.342209
      2          8           0        1.788843    0.817099   52.173844
      3          8           0       -1.096597   -0.182890  -37.995685
      4          1           0       -1.951154   -0.646277  -38.107836
      5          1           0       -0.686580   -0.048197  -38.870744
      6          1           0        1.821585   -0.075749   52.589519
      7          1           0        1.027895    1.326096   52.538434
 ---------------------------------------------------------------------
                    Distance matrix (angstroms):
                    1          2          3          4          5
     1  Cu   0.000000
     2  O   88.543165   0.000000
     3  O    1.892412  90.221226   0.000000
     4  H    2.585113  90.370963   0.978556   0.000000
     5  H    2.582948  91.082345   0.975698   1.593385   0.000000
     6  H   88.959414   0.985411  90.632259  90.777581  91.494652
     7  H   88.896625   0.985416  90.571614  90.716654  91.435584
                    6          7
     6  H    0.000000
     7  H    1.611745   0.000000
 Stoichiometry    CuH4O2(2+,2)
 Framework group  C1[X(CuH4O2)]
 Deg. of freedom    15
 Full point group                 C1      NOp   1
 Largest Abelian subgroup         C1      NOp   1
 Largest concise Abelian subgroup C1      NOp   1
                         Standard orientation:                         
 ---------------------------------------------------------------------
 Center     Atomic      Atomic             Coordinates (Angstroms)
 Number     Number       Type             X           Y           Z
 ---------------------------------------------------------------------
      1         29           0      -17.723139   -0.242514   -0.002969
      2          8           0       70.819857   -0.070017    0.013712
      3          8           0      -19.398597    0.637232    0.007481
      4          1           0      -19.535627    1.596428   -0.129408
      5          1           0      -20.261962    0.206601    0.152891
      6          1           0       71.230456    0.446637    0.745499
      7          1           0       71.168087    0.245531   -0.852434
 ---------------------------------------------------------------------
 Rotational constants (GHZ):     35.2227201      0.0043320      0.0043315

 **********************************************************************

            Population analysis using the SCF density.

 **********************************************************************

 Orbital symmetries:
 Alpha Orbitals:
       Occupied  (A) (A) (A) (A) (A) (A) (A) (A) (A) (A) (A) (A)
                 (A) (A) (A) (A) (A) (A) (A) (A) (A) (A) (A) (A)
       Virtual   (A) (A) (A) (A) (A) (A) (A) (A) (A) (A) (A) (A)
                 (A) (A) (A) (A) (A) (A) (A) (A) (A) (A) (A) (A)
                 (A) (A) (A) (A) (A) (A) (A) (A) (A) (A) (A) (A)
                 (A) (A) (A) (A) (A) (A) (A) (A) (A) (A) (A) (A)
                 (A) (A) (A) (A) (A) (A) (A) (A) (A) (A) (A) (A)
                 (A) (A) (A) (A) (A) (A) (A) (A) (A) (A)
 Beta  Orbitals:
       Occupied  (A) (A) (A) (A) (A) (A) (A) (A) (A) (A) (A) (A)
                 (A) (A) (A) (A) (A) (A) (A) (A) (A) (A) (A)
       Virtual   (A) (A) (A) (A) (A) (A) (A) (A) (A) (A) (A) (A)
                 (A) (A) (A) (A) (A) (A) (A) (A) (A) (A) (A) (A)
                 (A) (A) (A) (A) (A) (A) (A) (A) (A) (A) (A) (A)
                 (A) (A) (A) (A) (A) (A) (A) (A) (A) (A) (A) (A)
                 (A) (A) (A) (A) (A) (A) (A) (A) (A) (A) (A) (A)
                 (A) (A) (A) (A) (A) (A) (A) (A) (A) (A) (A)
 The electronic state is 2-A.
 Alpha  occ. eigenvalues -- -323.29652 -39.08692 -34.31619 -34.30486 -34.30461
 Alpha  occ. eigenvalues --  -19.51982 -19.46216  -4.62398  -3.13879  -3.11326
 Alpha  occ. eigenvalues --   -3.11259  -1.37716  -1.34533  -0.87469  -0.87009
 Alpha  occ. eigenvalues --   -0.79079  -0.71946  -0.71289  -0.66695  -0.61339
 Alpha  occ. eigenvalues --   -0.60803  -0.60304  -0.60301  -0.59775
 Alpha virt. eigenvalues --   -0.39005  -0.22549  -0.21263  -0.15595  -0.13058
 Alpha virt. eigenvalues --   -0.10505   0.05377   0.12654   0.12860   0.13150
 Alpha virt. eigenvalues --    0.38782   0.41219   0.42949   0.47801   0.52473
 Alpha virt. eigenvalues --    0.60006   0.80974   0.83542   0.97143   0.98208
 Alpha virt. eigenvalues --    1.12509   1.12585   1.13709   1.15742   1.27100
 Alpha virt. eigenvalues --    1.35259   1.72890   1.73582   1.74376   1.75593
 Alpha virt. eigenvalues --    2.37204   2.40361   2.40713   2.42153   2.46740
 Alpha virt. eigenvalues --    2.62782   2.76270   2.80021   2.88164   3.06807
 Alpha virt. eigenvalues --    3.07631   3.63081   3.63351   3.63359   3.63629
 Alpha virt. eigenvalues --    3.63752   3.64000   3.64041   4.32746   4.40599
 Alpha virt. eigenvalues --    4.46289   4.60023   4.60586   4.66336   6.85565
 Alpha virt. eigenvalues --    6.85583   6.87701   6.90423   6.96303   8.95258
 Alpha virt. eigenvalues --    8.98122   9.23088  31.64072  42.41804  42.43663
 Alpha virt. eigenvalues --   42.60391  49.31670  49.39098 183.70818 978.96183
  Beta  occ. eigenvalues -- -323.29656 -39.07881 -34.30501 -34.30069 -34.30020
  Beta  occ. eigenvalues --  -19.50036 -19.46161  -4.60742  -3.10863  -3.10219
  Beta  occ. eigenvalues --   -3.10088  -1.34425  -1.32765  -0.86953  -0.86045
  Beta  occ. eigenvalues --   -0.78382  -0.69813  -0.66528  -0.60707  -0.59378
  Beta  occ. eigenvalues --   -0.59377  -0.59275  -0.52966
  Beta virt. eigenvalues --   -0.52847  -0.38364  -0.22490  -0.20583  -0.15553
  Beta virt. eigenvalues --   -0.12639  -0.10442   0.05443   0.12701   0.12892
  Beta virt. eigenvalues --    0.13808   0.39168   0.41266   0.48827   0.48848
  Beta virt. eigenvalues --    0.52526   0.60962   0.81111   0.86206   0.97451
  Beta virt. eigenvalues --    0.98438   1.12796   1.12899   1.15678   1.15937
  Beta virt. eigenvalues --    1.27306   1.36114   1.72956   1.73410   1.74857
  Beta virt. eigenvalues --    1.75634   2.42209   2.43117   2.43618   2.46869
  Beta virt. eigenvalues --    2.47011   2.63100   2.80259   2.82105   2.88824
  Beta virt. eigenvalues --    3.07722   3.07738   3.63449   3.63462   3.64433
  Beta virt. eigenvalues --    3.64560   3.64596   3.64970   3.65796   4.40647
  Beta virt. eigenvalues --    4.41402   4.47976   4.60835   4.61784   4.66388
  Beta virt. eigenvalues --    6.86309   6.86336   6.88193   6.90945   6.99533
  Beta virt. eigenvalues --    8.96027   8.98774   9.24877  31.65148  42.42433
  Beta virt. eigenvalues --   42.44202  42.61819  49.33638  49.39157 183.71222
  Beta virt. eigenvalues --  978.96258
          Condensed to atoms (all electrons):
               1          2          3          4          5          6
     1  Cu  27.763798   0.000000   0.092297  -0.005123  -0.005110   0.000000
     2  O    0.000000   7.857256   0.000000   0.000000   0.000000   0.232595
     3  O    0.092297   0.000000   8.319191   0.252538   0.252761   0.000000
     4  H   -0.005123   0.000000   0.252538   0.249337  -0.020794   0.000000
     5  H   -0.005110   0.000000   0.252761  -0.020794   0.249042   0.000000
     6  H    0.000000   0.232595   0.000000   0.000000   0.000000   0.264040
     7  H    0.000000   0.232594   0.000000   0.000000   0.000000  -0.015112
               7
     1  Cu   0.000000
     2  O    0.232594
     3  O    0.000000
     4  H    0.000000
     5  H    0.000000
     6  H   -0.015112
     7  H    0.264047
          Atomic-Atomic Spin Densities.
               1          2          3          4          5          6
     1  Cu   0.272713   0.000000  -0.005831   0.000284   0.000284   0.000000
     2  O    0.000000   0.775317   0.000000   0.000000   0.000000  -0.008328
     3  O   -0.005831   0.000000   0.022704   0.000002   0.000004   0.000000
     4  H    0.000284   0.000000   0.000002   0.000182   0.000117   0.000000
     5  H    0.000284   0.000000   0.000004   0.000117   0.000175   0.000000
     6  H    0.000000  -0.008328   0.000000   0.000000   0.000000  -0.015080
     7  H    0.000000  -0.008328   0.000000   0.000000   0.000000   0.001329
               7
     1  Cu   0.000000
     2  O   -0.008328
     3  O    0.000000
     4  H    0.000000
     5  H    0.000000
     6  H    0.001329
     7  H   -0.015080
 Mulliken charges and spin densities:
               1          2
     1  Cu   1.154139   0.267451
     2  O   -0.322445   0.758661
     3  O   -0.916787   0.016879
     4  H    0.524043   0.000585
     5  H    0.524102   0.000581
     6  H    0.518477  -0.022079
     7  H    0.518471  -0.022079
 Sum of Mulliken charges =   2.00000   1.00000
 Mulliken charges and spin densities with hydrogens summed into heavy atoms:
               1          2
     1  Cu   1.154139   0.267451
     2  O    0.714504   0.714504
     3  O    0.131358   0.018046
 Electronic spatial extent (au):  <R**2>=         211136.6300
 Charge=              2.0000 electrons
 Dipole moment (field-independent basis, Debye):
    X=            131.9483    Y=              2.1174    Z=             -0.2685  Tot=            131.9655
 Quadrupole moment (field-independent basis, Debye-Ang):
   XX=          19528.8120   YY=            -14.7816   ZZ=            -17.8469
   XY=            115.2566   XZ=            -20.1432   YZ=             -0.2081
 Traceless Quadrupole moment (field-independent basis, Debye-Ang):
   XX=          13030.0842   YY=          -6513.5094   ZZ=          -6516.5748
   XY=            115.2566   XZ=            -20.1432   YZ=             -0.2081
 Octapole moment (field-independent basis, Debye-Ang**2):
  XXX=        1207937.6408  YYY=              3.0199  ZZZ=             -0.7134  XYY=           -191.8177
  XXY=           9207.7036  XXZ=          -1364.9855  XZZ=            116.3118  YZZ=             -1.3418
  YYZ=             -0.7954  XYZ=             35.2107
 Hexadecapole moment (field-independent basis, Debye-Ang**3):
 XXXX=       89465729.2716 YYYY=            -18.4169 ZZZZ=            -12.9928 XXXY=         628749.5973
 XXXZ=         -98156.7024 YYYX=             18.6875 YYYZ=             -1.4198 ZZZX=            -42.5297
 ZZZY=             -0.0041 XXYY=         -28951.4173 XXZZ=         -17222.0727 YYZZ=             -8.0104
 XXYZ=           1539.7215 YYXZ=             33.3500 ZZXY=            139.5089
 N-N= 9.698679488173D+01 E-N=-4.465690980951D+03  KE= 1.791430738646D+03
                          Isotropic Fermi Contact Couplings
        Atom                 a.u.       MegaHertz       Gauss      10(-4) cm-1
     1  Cu(63)            -0.26581    -315.27487    -112.49791    -105.16438
     2  O(17)              0.05455     -33.06654     -11.79896     -11.02981
     3  O(17)              0.03452     -20.92473      -7.46646      -6.97974
     4  H(1)               0.00051       2.27724       0.81258       0.75961
     5  H(1)               0.00051       2.27244       0.81086       0.75800
     6  H(1)              -0.01175     -52.52529     -18.74233     -17.52055
     7  H(1)              -0.01175     -52.52573     -18.74249     -17.52070
 --------------------------------------------------------
       Center         ----  Spin Dipole Couplings  ----
                      3XX-RR        3YY-RR        3ZZ-RR
 --------------------------------------------------------
     1   Atom        0.948284     -0.336979     -0.611305
     2   Atom        0.968598      0.496694     -1.465291
     3   Atom        0.048100     -0.012473     -0.035627
     4   Atom        0.000189      0.003942     -0.004131
     5   Atom        0.006141     -0.002013     -0.004129
     6   Atom       -0.024881     -0.008606      0.033487
     7   Atom       -0.035380     -0.045731      0.081111
 --------------------------------------------------------
                        XY            XZ            YZ
 --------------------------------------------------------
     1   Atom       -0.931924      0.007499      0.041024
     2   Atom       -2.236334      0.185942     -0.161277
     3   Atom       -0.043794     -0.000343      0.000139
     4   Atom       -0.003647      0.000178     -0.000954
     5   Atom        0.000454     -0.001003     -0.000402
     6   Atom        0.020425      0.069104      0.082703
     7   Atom       -0.002258     -0.064455     -0.061795
 --------------------------------------------------------


 ---------------------------------------------------------------------------------
              Anisotropic Spin Dipole Couplings in Principal Axis System
 ---------------------------------------------------------------------------------

       Atom             a.u.   MegaHertz   Gauss  10(-4) cm-1        Axes

              Baa    -0.8335  -118.008   -42.108   -39.363  0.4568  0.8719 -0.1764
     1 Cu(63) Bbb    -0.6042   -85.550   -30.526   -28.536  0.0873  0.1534  0.9843
              Bcc     1.4377   203.558    72.635    67.900  0.8853 -0.4650 -0.0061
 
              Baa    -1.5166   109.743    39.159    36.606  0.6691  0.7337 -0.1184
     2 O(17)  Bbb    -1.4783   106.971    38.170    35.682  0.0387  0.1248  0.9914
              Bcc     2.9950  -216.714   -77.329   -72.288  0.7422 -0.6679  0.0551
 
              Baa    -0.0356     2.579     0.920     0.860  0.0854  0.1555  0.9841
     3 O(17)  Bbb    -0.0354     2.563     0.915     0.855  0.4564  0.8719 -0.1774
              Bcc     0.0711    -5.142    -1.835    -1.715  0.8857 -0.4643 -0.0035
 
              Baa    -0.0043    -2.275    -0.812    -0.759  0.0856  0.1525  0.9846
     4 H(1)   Bbb    -0.0020    -1.058    -0.378    -0.353  0.8524  0.5004 -0.1516
              Bcc     0.0062     3.333     1.189     1.112 -0.5158  0.8523 -0.0872
 
              Baa    -0.0043    -2.285    -0.815    -0.762  0.0878  0.1567  0.9837
     5 H(1)   Bbb    -0.0020    -1.059    -0.378    -0.353 -0.0736  0.9859 -0.1505
              Bcc     0.0063     3.344     1.193     1.115  0.9934  0.0592 -0.0981
 
              Baa    -0.0898   -47.907   -17.095   -15.980 -0.5308 -0.5356  0.6568
     6 H(1)   Bbb    -0.0381   -20.344    -7.259    -6.786  0.7422 -0.6679  0.0551
              Bcc     0.1279    68.251    24.354    22.766  0.4092  0.5168  0.7520
 
              Baa    -0.0898   -47.907   -17.094   -15.980  0.5744  0.6763  0.4612
     7 H(1)   Bbb    -0.0381   -20.344    -7.259    -6.786  0.7422 -0.6679  0.0551
              Bcc     0.1279    68.251    24.354    22.766 -0.3453 -0.3107  0.8856
 

 ---------------------------------------------------------------------------------

 B after Tr=    -0.186598   -0.717017   35.954682
         Rot=    0.972910   -0.001898    0.010486   -0.230940 Ang= -26.73 deg.
 Atom   5 needs variable   4=   0.9756975370 but is    0.9785562902
 Input z-matrix variables are not compatible with final structure.


 HE THAT FOLLOWS NATURE IS NEVER LOST.

                             -- BACON
 Error termination request processed by link 9999.
 Error termination via Lnk1e in /usr/local/g09/l9999.exe at Sat Jun 18 23:41:24 2016.
 Job cpu time:       0 days  1 hours 10 minutes 41.5 seconds.
 File lengths (MBytes):  RWF=      9 Int=      0 D2E=      0 Chk=      3 Scr=      1
