 Entering Gaussian System, Link 0=g09
 Input=2coord_b3lyp_A_F_110.inp
 Output=2coord_b3lyp_A_F_110.log
 Initial command:
 /usr/local/g09/l1.exe "./Gau-5614.inp" -scrdir="./"
 Entering Link 1 = /usr/local/g09/l1.exe PID=      5616.
  
 Copyright (c) 1988,1990,1992,1993,1995,1998,2003,2009,2013,
            Gaussian, Inc.  All Rights Reserved.
  
 This is part of the Gaussian(R) 09 program.  It is based on
 the Gaussian(R) 03 system (copyright 2003, Gaussian, Inc.),
 the Gaussian(R) 98 system (copyright 1998, Gaussian, Inc.),
 the Gaussian(R) 94 system (copyright 1995, Gaussian, Inc.),
 the Gaussian 92(TM) system (copyright 1992, Gaussian, Inc.),
 the Gaussian 90(TM) system (copyright 1990, Gaussian, Inc.),
 the Gaussian 88(TM) system (copyright 1988, Gaussian, Inc.),
 the Gaussian 86(TM) system (copyright 1986, Carnegie Mellon
 University), and the Gaussian 82(TM) system (copyright 1983,
 Carnegie Mellon University). Gaussian is a federally registered
 trademark of Gaussian, Inc.
  
 This software contains proprietary and confidential information,
 including trade secrets, belonging to Gaussian, Inc.
  
 This software is provided under written license and may be
 used, copied, transmitted, or stored only in accord with that
 written license.
  
 The following legend is applicable only to US Government
 contracts under FAR:
  
                    RESTRICTED RIGHTS LEGEND
  
 Use, reproduction and disclosure by the US Government is
 subject to restrictions as set forth in subparagraphs (a)
 and (c) of the Commercial Computer Software - Restricted
 Rights clause in FAR 52.227-19.
  
 Gaussian, Inc.
 340 Quinnipiac St., Bldg. 40, Wallingford CT 06492
  
  
 ---------------------------------------------------------------
 Warning -- This program may not be used in any manner that
 competes with the business of Gaussian, Inc. or will provide
 assistance to any competitor of Gaussian, Inc.  The licensee
 of this program is prohibited from giving any competitor of
 Gaussian, Inc. access to this program.  By using this program,
 the user acknowledges that Gaussian, Inc. is engaged in the
 business of creating and licensing software in the field of
 computational chemistry and represents and warrants to the
 licensee that it is not a competitor of Gaussian, Inc. and that
 it will not use this program in any manner prohibited above.
 ---------------------------------------------------------------
  

 Cite this work as:
 Gaussian 09, Revision D.01,
 M. J. Frisch, G. W. Trucks, H. B. Schlegel, G. E. Scuseria, 
 M. A. Robb, J. R. Cheeseman, G. Scalmani, V. Barone, B. Mennucci, 
 G. A. Petersson, H. Nakatsuji, M. Caricato, X. Li, H. P. Hratchian, 
 A. F. Izmaylov, J. Bloino, G. Zheng, J. L. Sonnenberg, M. Hada, 
 M. Ehara, K. Toyota, R. Fukuda, J. Hasegawa, M. Ishida, T. Nakajima, 
 Y. Honda, O. Kitao, H. Nakai, T. Vreven, J. A. Montgomery, Jr., 
 J. E. Peralta, F. Ogliaro, M. Bearpark, J. J. Heyd, E. Brothers, 
 K. N. Kudin, V. N. Staroverov, T. Keith, R. Kobayashi, J. Normand, 
 K. Raghavachari, A. Rendell, J. C. Burant, S. S. Iyengar, J. Tomasi, 
 M. Cossi, N. Rega, J. M. Millam, M. Klene, J. E. Knox, J. B. Cross, 
 V. Bakken, C. Adamo, J. Jaramillo, R. Gomperts, R. E. Stratmann, 
 O. Yazyev, A. J. Austin, R. Cammi, C. Pomelli, J. W. Ochterski, 
 R. L. Martin, K. Morokuma, V. G. Zakrzewski, G. A. Voth, 
 P. Salvador, J. J. Dannenberg, S. Dapprich, A. D. Daniels, 
 O. Farkas, J. B. Foresman, J. V. Ortiz, J. Cioslowski, 
 and D. J. Fox, Gaussian, Inc., Wallingford CT, 2013.
 
 ******************************************
 Gaussian 09:  EM64L-G09RevD.01 24-Apr-2013
                17-Jun-2016 
 ******************************************
 %mem=2GB
 %nprocshared=1
 Will use up to    1 processors via shared memory.
 %chk=pescuh2o2.chk
 -------------------------------------------------------
 #opt=(modredundant,maxcycles=350) B3LYP/6-311G* scf=xqc
 -------------------------------------------------------
 1/6=350,14=-1,18=120,19=15,26=3,38=1/1,3;
 2/9=110,12=2,17=6,18=5,40=1/2;
 3/5=4,6=6,7=1,11=2,16=1,25=1,30=1,71=1,74=-5/1,2,3;
 4//1;
 5/5=2,8=3,13=1,38=5/2,8;
 6/7=2,8=2,9=2,10=2,28=1/1;
 7//1,2,3,16;
 1/6=350,14=-1,18=20,19=15,26=3/3(2);
 2/9=110/2;
 99//99;
 2/9=110/2;
 3/5=4,6=6,7=1,11=2,16=1,25=1,30=1,71=1,74=-5/1,2,3;
 4/5=5,16=3,69=1/1;
 5/5=2,8=3,13=1,38=5/2,8;
 7//1,2,3,16;
 1/6=350,14=-1,18=20,19=15,26=3/3(-5);
 2/9=110/2;
 6/7=2,8=2,9=2,10=2,19=2,28=1/1;
 99/9=1/99;
 ---------
 cu2(h20)2
 ---------
 Symbolic Z-matrix:
 Charge =  2 Multiplicity = 2
 Cu
 O                    1    A
 O                    1    B        2    H
 H                    3    C        1    D        2    E        0
 H                    3    C        1    D        2    F        0
 H                    2    C        1    D        3    G        0
 H                    2    C        1    D        6    E        0
       Variables:
  A                     3.8852                   
  B                     1.88506                  
  C                     0.95                     
  D                   109.471                    
  E                   180.                       
  F                     0.                       
  G                    90.                       
  H                   110.                       
 
     4 tetrahedral angles replaced.
 Add virtual bond connecting atoms O2         and Cu1        Dist= 7.34D+00.
 The following ModRedundant input section has been read:
 A       2       1       3 F                                                   
 B       1       2 S  25 -0.100                                                
 

 GradGradGradGradGradGradGradGradGradGradGradGradGradGradGradGradGradGrad
 Berny optimization.
 Initialization pass.
                           ----------------------------
                           !    Initial Parameters    !
                           ! (Angstroms and Degrees)  !
 --------------------------                            --------------------------
 ! Name  Definition              Value          Derivative Info.                !
 --------------------------------------------------------------------------------
 ! R1    R(1,2)                  3.8852         Scan                            !
 ! R2    R(1,3)                  1.8851         estimate D2E/DX2                !
 ! R3    R(2,6)                  0.95           estimate D2E/DX2                !
 ! R4    R(2,7)                  0.95           estimate D2E/DX2                !
 ! R5    R(3,4)                  0.95           estimate D2E/DX2                !
 ! R6    R(3,5)                  0.95           estimate D2E/DX2                !
 ! A1    A(2,1,3)              110.0            Frozen                          !
 ! A2    A(1,2,6)              109.4712         estimate D2E/DX2                !
 ! A3    A(1,2,7)              109.4712         estimate D2E/DX2                !
 ! A4    A(6,2,7)              141.0576         estimate D2E/DX2                !
 ! A5    A(1,3,4)              109.4712         estimate D2E/DX2                !
 ! A6    A(1,3,5)              109.4712         estimate D2E/DX2                !
 ! A7    A(4,3,5)              141.0576         estimate D2E/DX2                !
 ! D1    D(3,1,2,6)             90.0            estimate D2E/DX2                !
 ! D2    D(3,1,2,7)            -90.0            estimate D2E/DX2                !
 ! D3    D(2,1,3,4)            180.0            estimate D2E/DX2                !
 ! D4    D(2,1,3,5)              0.0            estimate D2E/DX2                !
 ! D5    D(1,2,6,7)            180.0            estimate D2E/DX2                !
 ! D6    D(1,3,4,5)            180.0            estimate D2E/DX2                !
 --------------------------------------------------------------------------------
 Trust Radius=3.00D-01 FncErr=1.00D-07 GrdErr=1.00D-06
 Number of optimizations in scan=  26
 Number of steps in this run=    100 maximum allowed number of steps=    100.
 GradGradGradGradGradGradGradGradGradGradGradGradGradGradGradGradGradGrad

                          Input orientation:                          
 ---------------------------------------------------------------------
 Center     Atomic      Atomic             Coordinates (Angstroms)
 Number     Number       Type             X           Y           Z
 ---------------------------------------------------------------------
      1         29           0        0.000000    0.000000    0.000000
      2          8           0        0.000000    0.000000    3.885203
      3          8           0        1.771378    0.000000   -0.644729
      4          1           0        1.762611    0.000000   -1.594688
      5          1           0        2.375284    0.000000    0.088618
      6          1           0        0.000000    0.895669    4.201870
      7          1           0        0.000000   -0.895669    4.201870
 ---------------------------------------------------------------------
                    Distance matrix (angstroms):
                    1          2          3          4          5
     1  Cu   0.000000
     2  O    3.885203   0.000000
     3  O    1.885061   4.863955   0.000000
     4  H    2.376936   5.756388   0.950000   0.000000
     5  H    2.376936   4.478396   0.950000   1.791337   0.000000
     6  H    4.296269   0.950000   5.237320   6.124468   4.833532
     7  H    4.296269   0.950000   5.237320   6.124468   4.833532
                    6          7
     6  H    0.000000
     7  H    1.791337   0.000000
 Stoichiometry    CuH4O2(2+,2)
 Framework group  CS[SG(CuH2O2),X(H2)]
 Deg. of freedom    10
 Full point group                 CS      NOp   2
 Largest Abelian subgroup         CS      NOp   2
 Largest concise Abelian subgroup CS      NOp   2
                         Standard orientation:                         
 ---------------------------------------------------------------------
 Center     Atomic      Atomic             Coordinates (Angstroms)
 Number     Number       Type             X           Y           Z
 ---------------------------------------------------------------------
      1         29           0        0.000000    0.766995    0.000000
      2          8           0       -1.892725   -2.625996    0.000000
      3          8           0        1.861052    0.467095    0.000000
      4          1           0        2.316180    1.300977    0.000000
      5          1           0        2.031191   -0.467545    0.000000
      6          1           0       -2.046993   -2.902545    0.895669
      7          1           0       -2.046993   -2.902545   -0.895669
 ---------------------------------------------------------------------
 Rotational constants (GHZ):     11.9542014      1.9391888      1.6865313
 Standard basis: 6-311G(d) (5D, 7F)
 There are    74 symmetry adapted cartesian basis functions of A'  symmetry.
 There are    28 symmetry adapted cartesian basis functions of A"  symmetry.
 There are    67 symmetry adapted basis functions of A'  symmetry.
 There are    27 symmetry adapted basis functions of A"  symmetry.
    94 basis functions,   165 primitive gaussians,   102 cartesian basis functions
    24 alpha electrons       23 beta electrons
       nuclear repulsion energy       145.8508054955 Hartrees.
 NAtoms=    7 NActive=    7 NUniq=    6 SFac= 1.36D+00 NAtFMM=   60 NAOKFM=F Big=F
 Integral buffers will be    131072 words long.
 Raffenetti 2 integral format.
 Two-electron integral symmetry is turned on.
 One-electron integrals computed using PRISM.
 NBasis=    94 RedAO= T EigKep=  1.33D-02  NBF=    67    27
 NBsUse=    94 1.00D-06 EigRej= -1.00D+00 NBFU=    67    27
 ExpMin= 4.08D-02 ExpMax= 3.37D+05 ExpMxC= 1.14D+04 IAcc=2 IRadAn=         4 AccDes= 0.00D+00
 Harris functional with IExCor=  402 and IRadAn=       4 diagonalized for initial guess.
 HarFok:  IExCor=  402 AccDes= 0.00D+00 IRadAn=         4 IDoV= 1 UseB2=F ITyADJ=14
 ICtDFT=  3500011 ScaDFX=  1.000000  1.000000  1.000000  1.000000
 FoFCou: FMM=F IPFlag=           0 FMFlag=      100000 FMFlg1=           0
         NFxFlg=           0 DoJE=T BraDBF=F KetDBF=T FulRan=T
         wScrn=  0.000000 ICntrl=     500 IOpCl=  0 I1Cent=   200000004 NGrid=           0
         NMat0=    1 NMatS0=      1 NMatT0=    0 NMatD0=    1 NMtDS0=    0 NMtDT0=    0
 Petite list used in FoFCou.
 Initial guess orbital symmetries:
 Alpha Orbitals:
       Occupied  (A') (A') (A') (A') (A") (A') (A') (A') (A') (A')
                 (A") (A') (A') (A') (A") (A') (A") (A') (A') (A')
                 (A') (A') (A") (A")
       Virtual   (A') (A') (A') (A') (A") (A') (A') (A') (A') (A")
                 (A") (A') (A') (A') (A') (A") (A') (A') (A") (A')
                 (A') (A") (A') (A") (A') (A') (A') (A') (A') (A")
                 (A") (A") (A") (A') (A') (A') (A') (A") (A') (A')
                 (A') (A') (A") (A') (A") (A') (A") (A') (A") (A')
                 (A') (A') (A") (A') (A") (A') (A") (A') (A') (A")
                 (A') (A') (A') (A") (A') (A') (A') (A') (A') (A')
 Beta  Orbitals:
       Occupied  (A') (A') (A') (A') (A") (A') (A') (A') (A') (A')
                 (A") (A') (A') (A') (A") (A') (A") (A') (A') (A')
                 (A') (A') (A")
       Virtual   (A") (A') (A') (A') (A') (A") (A') (A') (A') (A')
                 (A") (A") (A') (A') (A') (A') (A") (A') (A') (A")
                 (A') (A') (A") (A') (A") (A') (A') (A') (A') (A')
                 (A") (A") (A") (A") (A') (A') (A') (A') (A") (A')
                 (A') (A') (A') (A") (A') (A") (A') (A") (A') (A")
                 (A') (A') (A') (A") (A') (A") (A') (A") (A') (A')
                 (A") (A') (A') (A') (A") (A') (A') (A') (A') (A')
                 (A')
 The electronic state of the initial guess is 2-A".
 Initial guess <Sx>= 0.0000 <Sy>= 0.0000 <Sz>= 0.5000 <S**2>= 0.7500 S= 0.5000
 Keep R1 and R2 ints in memory in symmetry-blocked form, NReq=15545797.
 Requested convergence on RMS density matrix=1.00D-08 within  64 cycles.
 Requested convergence on MAX density matrix=1.00D-06.
 Requested convergence on             energy=1.00D-06.
 No special actions if energy rises.
 EnCoef did   100 forward-backward iterations
 EnCoef did   100 forward-backward iterations
 EnCoef did   100 forward-backward iterations
 EnCoef did   100 forward-backward iterations
 EnCoef did     9 forward-backward iterations
 EnCoef did   100 forward-backward iterations
 EnCoef did    37 forward-backward iterations
 EnCoef did   100 forward-backward iterations
 EnCoef did   100 forward-backward iterations
 EnCoef did   100 forward-backward iterations
 EnCoef did   100 forward-backward iterations
 EnCoef did   100 forward-backward iterations
 EnCoef did   100 forward-backward iterations
 EnCoef did   100 forward-backward iterations
 Rare condition: small coef for last iteration:  0.000D+00
 Rare condition: small coef for last iteration:  0.000D+00
 Rare condition: small coef for last iteration:  0.000D+00
 Rare condition: small coef for last iteration:  0.000D+00
 Rare condition: small coef for last iteration:  0.000D+00
 Rare condition: small coef for last iteration:  0.000D+00
 Rare condition: small coef for last iteration:  0.000D+00
 Rare condition: small coef for last iteration:  0.000D+00
 Rare condition: small coef for last iteration:  0.000D+00
 Rare condition: small coef for last iteration:  0.000D+00
 Rare condition: small coef for last iteration:  0.000D+00
 Rare condition: small coef for last iteration:  0.000D+00
 Rare condition: small coef for last iteration:  0.000D+00
 Rare condition: small coef for last iteration:  0.000D+00
 Rare condition: small coef for last iteration:  0.000D+00
 Rare condition: small coef for last iteration:  0.000D+00
 Rare condition: small coef for last iteration:  0.000D+00
 Rare condition: small coef for last iteration:  0.000D+00
 Rare condition: small coef for last iteration:  0.000D+00
 Rare condition: small coef for last iteration:  0.000D+00
 Rare condition: small coef for last iteration:  0.000D+00
 Rare condition: small coef for last iteration:  0.000D+00
 >>>>>>>>>> Convergence criterion not met.
 SCF Done:  E(UB3LYP) =  -1792.39422162     A.U. after   65 cycles
            NFock= 64  Conv=0.38D-06     -V/T= 1.9988
 <Sx>= 0.0000 <Sy>= 0.0000 <Sz>= 0.5000 <S**2>= 0.7516 S= 0.5008
 <L.S>= 0.000000000000E+00
 Annihilation of the first spin contaminant:
 S**2 before annihilation     0.7516,   after     0.7500
 Keep R1 and R2 ints in memory in symmetry-blocked form, NReq=15602405.
 Gradient too large for Newton-Raphson -- use scaled steepest descent instead.
  Beta Gap=    -0.402 HL deriv= 2.78D-17 Rot set to   7.99D-01
     Minimum is close to point  2 DX=  7.25D-03 DF= -3.29D-05 DXR=  2.36D-02 DFR=  5.57D-04 which will be used.
 Gradient too large for Newton-Raphson -- use scaled steepest descent instead.
     Accept linear search using points  2 and  3.
 Gradient too large for Newton-Raphson -- use scaled steepest descent instead.
 Gradient too large for Newton-Raphson -- use scaled steepest descent instead.
 Gradient too large for Newton-Raphson -- use scaled steepest descent instead.
     Accept linear search using points  1 and  2.
 Gradient too large for Newton-Raphson -- use scaled steepest descent instead.
     Accept linear search using points  3 and  4.
     Minimum is close to point  4 DX= -1.49D-01 DF= -2.51D-05 DXR=  9.64D-02 DFR=  6.83D-03 which will be used.
 Gradient too large for Newton-Raphson -- use scaled steepest descent instead.
     Minimum is close to point  3 DX=  7.06D-03 DF= -2.20D-06 DXR=  2.30D-02 DFR=  5.30D-04 which will be used.
 Gradient too large for Newton-Raphson -- use scaled steepest descent instead.
     Accept linear search using points  4 and  5.
     Minimum is close to point  5 DX= -2.97D-01 DF= -4.33D-05 DXR=  7.25D-02 DFR=  6.03D-03 which will be used.
 Gradient too large for Newton-Raphson -- use scaled steepest descent instead.
     Minimum is close to point  3 DX= -1.44D-02 DF= -1.80D-05 DXR=  5.03D-02 DFR=  2.53D-03 which will be used.
 Gradient too large for Newton-Raphson -- use scaled steepest descent instead.
 Gradient too large for Newton-Raphson -- use scaled steepest descent instead.
     Accept linear search using points  1 and  2.
 Gradient too large for Newton-Raphson -- use scaled steepest descent instead.
 Gradient too large for Newton-Raphson -- use scaled steepest descent instead.
     Accept linear search using points  1 and  2.
 Gradient too large for Newton-Raphson -- use scaled steepest descent instead.
     Minimum is close to point  3 DX=  3.83D-03 DF= -4.39D-09 DXR=  9.49D-03 DFR=  9.00D-05 which will be used.
 Gradient too large for Newton-Raphson -- use scaled steepest descent instead.
     Accept linear search using points  1 and  2.
 LinEq1:  Iter=  0 NonCon=     1 RMS=2.97D-04 Max=1.50D-02 NDo=     1
 AX will form     1 AO Fock derivatives at one time.
 LinEq1:  Iter=  1 NonCon=     1 RMS=1.96D-03 Max=5.90D-02 NDo=     1
 LinEq1:  Iter=  2 NonCon=     1 RMS=7.37D-04 Max=2.48D-02 NDo=     1
 LinEq1:  Iter=  3 NonCon=     1 RMS=9.92D-04 Max=3.71D-02 NDo=     1
 LinEq1:  Iter=  4 NonCon=     1 RMS=4.60D-04 Max=6.65D-03 NDo=     1
 LinEq1:  Iter=  5 NonCon=     1 RMS=1.76D-04 Max=3.05D-03 NDo=     1
 LinEq1:  Iter=  6 NonCon=     1 RMS=5.68D-05 Max=1.99D-03 NDo=     1
 LinEq1:  Iter=  7 NonCon=     1 RMS=2.45D-05 Max=6.89D-04 NDo=     1
 LinEq1:  Iter=  8 NonCon=     1 RMS=1.04D-05 Max=1.60D-04 NDo=     1
 LinEq1:  Iter=  9 NonCon=     1 RMS=1.05D-05 Max=3.22D-04 NDo=     1
 LinEq1:  Iter= 10 NonCon=     1 RMS=2.95D-06 Max=8.98D-05 NDo=     1
 LinEq1:  Iter= 11 NonCon=     1 RMS=1.18D-06 Max=3.94D-05 NDo=     1
 LinEq1:  Iter= 12 NonCon=     1 RMS=3.35D-07 Max=9.09D-06 NDo=     1
 LinEq1:  Iter= 13 NonCon=     1 RMS=8.00D-08 Max=1.57D-06 NDo=     1
 LinEq1:  Iter= 14 NonCon=     1 RMS=2.43D-08 Max=4.29D-07 NDo=     1
 LinEq1:  Iter= 15 NonCon=     1 RMS=8.68D-09 Max=3.09D-07 NDo=     1
 LinEq1:  Iter= 16 NonCon=     0 RMS=2.72D-09 Max=4.64D-08 NDo=     1
 Linear equations converged to 5.756D-09 5.756D-08 after    16 iterations.
     Accept linear search using points  1 and  2.
     Minimum is close to point  2 DX= -5.87D-03 DF= -1.21D-09 DXR=  5.90D-03 DFR=  3.50D-05 which will be used.
 LinEq1:  Iter=  0 NonCon=     1 RMS=3.64D-05 Max=2.09D-03 NDo=     1
 LinEq1:  Iter=  1 NonCon=     1 RMS=3.81D-05 Max=1.54D-03 NDo=     1
 LinEq1:  Iter=  2 NonCon=     1 RMS=4.39D-05 Max=1.64D-03 NDo=     1
 LinEq1:  Iter=  3 NonCon=     1 RMS=2.16D-05 Max=4.69D-04 NDo=     1
 LinEq1:  Iter=  4 NonCon=     1 RMS=8.46D-06 Max=2.07D-04 NDo=     1
 LinEq1:  Iter=  5 NonCon=     1 RMS=7.88D-06 Max=2.61D-04 NDo=     1
 LinEq1:  Iter=  6 NonCon=     1 RMS=3.94D-06 Max=1.01D-04 NDo=     1
 LinEq1:  Iter=  7 NonCon=     1 RMS=1.52D-06 Max=3.00D-05 NDo=     1
 LinEq1:  Iter=  8 NonCon=     1 RMS=5.08D-07 Max=1.57D-05 NDo=     1
 LinEq1:  Iter=  9 NonCon=     1 RMS=2.16D-07 Max=7.40D-06 NDo=     1
 LinEq1:  Iter= 10 NonCon=     1 RMS=5.55D-08 Max=1.06D-06 NDo=     1
 LinEq1:  Iter= 11 NonCon=     1 RMS=1.75D-08 Max=4.34D-07 NDo=     1
 LinEq1:  Iter= 12 NonCon=     1 RMS=3.54D-09 Max=6.83D-08 NDo=     1
 LinEq1:  Iter= 13 NonCon=     1 RMS=1.19D-09 Max=3.84D-08 NDo=     1
 LinEq1:  Iter= 14 NonCon=     1 RMS=4.94D-10 Max=1.59D-08 NDo=     1
 LinEq1:  Iter= 15 NonCon=     0 RMS=1.63D-10 Max=2.93D-09 NDo=     1
 Linear equations converged to 1.296D-09 1.296D-08 after    15 iterations.
     Minimum is close to point  2 DX=  2.63D-02 DF= -1.82D-12 DXR=  2.56D-02 DFR=  7.19D-04 which will be used.
 LinEq1:  Iter=  0 NonCon=     1 RMS=9.10D-08 Max=5.20D-06 NDo=     1
 LinEq1:  Iter=  1 NonCon=     1 RMS=1.71D-07 Max=8.63D-06 NDo=     1
 LinEq1:  Iter=  2 NonCon=     1 RMS=4.93D-08 Max=7.69D-07 NDo=     1
 LinEq1:  Iter=  3 NonCon=     1 RMS=3.61D-08 Max=7.13D-07 NDo=     1
 LinEq1:  Iter=  4 NonCon=     1 RMS=3.00D-08 Max=7.87D-07 NDo=     1
 LinEq1:  Iter=  5 NonCon=     1 RMS=1.54D-08 Max=5.40D-07 NDo=     1
 LinEq1:  Iter=  6 NonCon=     1 RMS=1.26D-08 Max=2.99D-07 NDo=     1
 LinEq1:  Iter=  7 NonCon=     1 RMS=8.28D-09 Max=1.44D-07 NDo=     1
 LinEq1:  Iter=  8 NonCon=     1 RMS=2.39D-09 Max=8.24D-08 NDo=     1
 LinEq1:  Iter=  9 NonCon=     1 RMS=9.52D-10 Max=3.37D-08 NDo=     1
 LinEq1:  Iter= 10 NonCon=     1 RMS=2.30D-10 Max=4.08D-09 NDo=     1
 LinEq1:  Iter= 11 NonCon=     1 RMS=7.32D-11 Max=1.84D-09 NDo=     1
 LinEq1:  Iter= 12 NonCon=     1 RMS=2.09D-11 Max=5.06D-10 NDo=     1
 LinEq1:  Iter= 13 NonCon=     1 RMS=5.59D-12 Max=1.20D-10 NDo=     1
 LinEq1:  Iter= 14 NonCon=     1 RMS=2.37D-12 Max=8.26D-11 NDo=     1
 LinEq1:  Iter= 15 NonCon=     0 RMS=9.08D-13 Max=2.80D-11 NDo=     1
 Linear equations converged to 5.757D-12 5.757D-11 after    15 iterations.
 Incorrect curvature in search direction -- initial direction reversed.
     Minimum is close to point 16 DX=  0.00D+00 DF=  0.00D+00 DXR=  0.00D+00 DFR=  0.00D+00 which will be used.
 Gradient too large for Newton-Raphson -- use scaled steepest descent instead.
 LinEq1:  Iter=  0 NonCon=     1 RMS=1.59D-04 Max=7.28D-03 NDo=     1
 LinEq1:  Iter=  1 NonCon=     1 RMS=1.70D-03 Max=8.93D-02 NDo=     1
 LinEq1:  Iter=  2 NonCon=     1 RMS=1.22D-03 Max=4.12D-02 NDo=     1
 LinEq1:  Iter=  3 NonCon=     1 RMS=1.04D-03 Max=2.46D-02 NDo=     1
 LinEq1:  Iter=  4 NonCon=     1 RMS=6.52D-04 Max=1.32D-02 NDo=     1
 LinEq1:  Iter=  5 NonCon=     1 RMS=6.61D-04 Max=1.44D-02 NDo=     1
 LinEq1:  Iter=  6 NonCon=     1 RMS=4.14D-04 Max=1.08D-02 NDo=     1
 LinEq1:  Iter=  7 NonCon=     1 RMS=1.38D-04 Max=2.58D-03 NDo=     1
 LinEq1:  Iter=  8 NonCon=     1 RMS=4.26D-05 Max=1.31D-03 NDo=     1
 LinEq1:  Iter=  9 NonCon=     1 RMS=1.95D-05 Max=7.65D-04 NDo=     1
 LinEq1:  Iter= 10 NonCon=     1 RMS=5.17D-06 Max=7.79D-05 NDo=     1
 LinEq1:  Iter= 11 NonCon=     1 RMS=1.57D-06 Max=4.76D-05 NDo=     1
 LinEq1:  Iter= 12 NonCon=     1 RMS=3.79D-07 Max=1.05D-05 NDo=     1
 LinEq1:  Iter= 13 NonCon=     1 RMS=9.11D-08 Max=1.44D-06 NDo=     1
 LinEq1:  Iter= 14 NonCon=     1 RMS=3.70D-08 Max=1.09D-06 NDo=     1
 LinEq1:  Iter= 15 NonCon=     1 RMS=1.19D-08 Max=3.18D-07 NDo=     1
 LinEq1:  Iter= 16 NonCon=     1 RMS=3.41D-09 Max=7.52D-08 NDo=     1
 LinEq1:  Iter= 17 NonCon=     0 RMS=8.17D-10 Max=1.37D-08 NDo=     1
 Linear equations converged to 5.756D-09 5.756D-08 after    17 iterations.
 Incorrect curvature in search direction -- initial direction reversed.
     Minimum is close to point  4 DX= -1.82D-02 DF= -2.99D-08 DXR=  6.10D-03 DFR=  1.07D-04 which will be used.
 Gradient too large for Newton-Raphson -- use scaled steepest descent instead.
     Minimum is close to point  2 DX= -1.03D-02 DF= -5.33D-07 DXR=  5.43D-02 DFR=  2.96D-03 which will be used.
 Gradient too large for Newton-Raphson -- use scaled steepest descent instead.
     Minimum is close to point  3 DX=  1.79D-03 DF= -1.72D-09 DXR=  4.46D-03 DFR=  2.01D-05 which will be used.
 Gradient too large for Newton-Raphson -- use scaled steepest descent instead.
     Accept linear search using points  1 and  2.
 LinEq1:  Iter=  0 NonCon=     1 RMS=5.88D-04 Max=2.48D-02 NDo=     1
 LinEq1:  Iter=  1 NonCon=     1 RMS=4.36D-03 Max=2.09D-01 NDo=     1
 LinEq1:  Iter=  2 NonCon=     1 RMS=1.57D-03 Max=4.30D-02 NDo=     1
 LinEq1:  Iter=  3 NonCon=     1 RMS=8.00D-04 Max=1.84D-02 NDo=     1
 LinEq1:  Iter=  4 NonCon=     1 RMS=6.68D-04 Max=1.72D-02 NDo=     1
 LinEq1:  Iter=  5 NonCon=     1 RMS=5.36D-04 Max=1.29D-02 NDo=     1
 LinEq1:  Iter=  6 NonCon=     1 RMS=2.00D-04 Max=3.06D-03 NDo=     1
 LinEq1:  Iter=  7 NonCon=     1 RMS=9.99D-05 Max=2.28D-03 NDo=     1
 LinEq1:  Iter=  8 NonCon=     1 RMS=7.69D-05 Max=2.36D-03 NDo=     1
 LinEq1:  Iter=  9 NonCon=     1 RMS=3.82D-05 Max=1.30D-03 NDo=     1
 LinEq1:  Iter= 10 NonCon=     1 RMS=8.69D-06 Max=1.41D-04 NDo=     1
 LinEq1:  Iter= 11 NonCon=     1 RMS=2.72D-06 Max=5.04D-05 NDo=     1
 LinEq1:  Iter= 12 NonCon=     1 RMS=8.60D-07 Max=2.42D-05 NDo=     1
 LinEq1:  Iter= 13 NonCon=     1 RMS=3.34D-07 Max=7.83D-06 NDo=     1
 LinEq1:  Iter= 14 NonCon=     1 RMS=7.78D-08 Max=1.23D-06 NDo=     1
 LinEq1:  Iter= 15 NonCon=     1 RMS=2.09D-08 Max=3.88D-07 NDo=     1
 LinEq1:  Iter= 16 NonCon=     1 RMS=5.25D-09 Max=1.52D-07 NDo=     1
 LinEq1:  Iter= 17 NonCon=     0 RMS=1.22D-09 Max=2.63D-08 NDo=     1
 Linear equations converged to 5.756D-09 5.756D-08 after    17 iterations.
 Incorrect curvature in search direction -- initial direction reversed.
 Gradient too large for Newton-Raphson -- use scaled steepest descent instead.
     Minimum is close to point  3 DX= -2.55D-03 DF= -2.85D-08 DXR=  1.29D-02 DFR=  1.66D-04 which will be used.
 Gradient too large for Newton-Raphson -- use scaled steepest descent instead.
     Accept linear search using points  3 and  4.
 Gradient too large for Newton-Raphson -- use scaled steepest descent instead.
     Accept linear search using points  1 and  2.
 LinEq1:  Iter=  0 NonCon=     1 RMS=6.67D-04 Max=3.06D-02 NDo=     1
 LinEq1:  Iter=  1 NonCon=     1 RMS=4.07D-03 Max=2.18D-01 NDo=     1
 LinEq1:  Iter=  2 NonCon=     1 RMS=1.16D-03 Max=3.84D-02 NDo=     1
 LinEq1:  Iter=  3 NonCon=     1 RMS=5.14D-04 Max=1.29D-02 NDo=     1
 LinEq1:  Iter=  4 NonCon=     1 RMS=5.13D-04 Max=1.23D-02 NDo=     1
 LinEq1:  Iter=  5 NonCon=     1 RMS=2.63D-04 Max=5.90D-03 NDo=     1
 LinEq1:  Iter=  6 NonCon=     1 RMS=1.63D-04 Max=2.66D-03 NDo=     1
 LinEq1:  Iter=  7 NonCon=     1 RMS=1.31D-04 Max=2.37D-03 NDo=     1
 LinEq1:  Iter=  8 NonCon=     1 RMS=5.70D-05 Max=2.14D-03 NDo=     1
 LinEq1:  Iter=  9 NonCon=     1 RMS=2.16D-05 Max=6.86D-04 NDo=     1
 LinEq1:  Iter= 10 NonCon=     1 RMS=4.42D-06 Max=8.32D-05 NDo=     1
 LinEq1:  Iter= 11 NonCon=     1 RMS=1.16D-06 Max=3.17D-05 NDo=     1
 LinEq1:  Iter= 12 NonCon=     1 RMS=5.96D-07 Max=1.76D-05 NDo=     1
 LinEq1:  Iter= 13 NonCon=     1 RMS=1.50D-07 Max=3.07D-06 NDo=     1
 LinEq1:  Iter= 14 NonCon=     1 RMS=3.03D-08 Max=5.88D-07 NDo=     1
 LinEq1:  Iter= 15 NonCon=     1 RMS=7.39D-09 Max=1.76D-07 NDo=     1
 LinEq1:  Iter= 16 NonCon=     0 RMS=1.83D-09 Max=4.90D-08 NDo=     1
 Linear equations converged to 5.756D-09 5.756D-08 after    16 iterations.
 Incorrect curvature in search direction -- initial direction reversed.
 Gradient too large for Newton-Raphson -- use scaled steepest descent instead.
 Gradient too large for Newton-Raphson -- use scaled steepest descent instead.
     Accept linear search using points  4 and  5.
 Gradient too large for Newton-Raphson -- use scaled steepest descent instead.
     Minimum is close to point  3 DX= -4.57D-03 DF= -5.88D-08 DXR=  2.34D-02 DFR=  5.48D-04 which will be used.
 LinEq1:  Iter=  0 NonCon=     1 RMS=1.23D-03 Max=6.53D-02 NDo=     1
 LinEq1:  Iter=  1 NonCon=     1 RMS=7.90D-03 Max=3.47D-01 NDo=     1
 LinEq1:  Iter=  2 NonCon=     1 RMS=1.29D-03 Max=2.61D-02 NDo=     1
 LinEq1:  Iter=  3 NonCon=     1 RMS=1.35D-03 Max=4.90D-02 NDo=     1
 LinEq1:  Iter=  4 NonCon=     1 RMS=5.57D-04 Max=1.51D-02 NDo=     1
 LinEq1:  Iter=  5 NonCon=     1 RMS=4.09D-04 Max=9.10D-03 NDo=     1
 LinEq1:  Iter=  6 NonCon=     1 RMS=2.83D-04 Max=4.41D-03 NDo=     1
 LinEq1:  Iter=  7 NonCon=     1 RMS=7.45D-05 Max=2.01D-03 NDo=     1
 LinEq1:  Iter=  8 NonCon=     1 RMS=2.09D-05 Max=7.74D-04 NDo=     1
 LinEq1:  Iter=  9 NonCon=     1 RMS=7.03D-06 Max=1.39D-04 NDo=     1
 LinEq1:  Iter= 10 NonCon=     1 RMS=2.12D-06 Max=4.23D-05 NDo=     1
 LinEq1:  Iter= 11 NonCon=     1 RMS=6.34D-07 Max=2.33D-05 NDo=     1
 LinEq1:  Iter= 12 NonCon=     1 RMS=2.16D-07 Max=4.99D-06 NDo=     1
 LinEq1:  Iter= 13 NonCon=     1 RMS=4.80D-08 Max=5.79D-07 NDo=     1
 LinEq1:  Iter= 14 NonCon=     1 RMS=1.15D-08 Max=2.19D-07 NDo=     1
 LinEq1:  Iter= 15 NonCon=     0 RMS=2.84D-09 Max=4.82D-08 NDo=     1
 Linear equations converged to 5.756D-09 5.756D-08 after    15 iterations.
 LinEq1:  Iter=  0 NonCon=     1 RMS=7.58D-04 Max=3.90D-02 NDo=     1
 LinEq1:  Iter=  1 NonCon=     1 RMS=5.60D-03 Max=2.34D-01 NDo=     1
 LinEq1:  Iter=  2 NonCon=     1 RMS=9.45D-04 Max=1.97D-02 NDo=     1
 LinEq1:  Iter=  3 NonCon=     1 RMS=1.03D-03 Max=3.78D-02 NDo=     1
 LinEq1:  Iter=  4 NonCon=     1 RMS=4.48D-04 Max=1.17D-02 NDo=     1
 LinEq1:  Iter=  5 NonCon=     1 RMS=3.27D-04 Max=6.38D-03 NDo=     1
 LinEq1:  Iter=  6 NonCon=     1 RMS=2.35D-04 Max=3.78D-03 NDo=     1
 LinEq1:  Iter=  7 NonCon=     1 RMS=5.06D-05 Max=1.21D-03 NDo=     1
 LinEq1:  Iter=  8 NonCon=     1 RMS=9.79D-06 Max=2.67D-04 NDo=     1
 LinEq1:  Iter=  9 NonCon=     1 RMS=4.18D-06 Max=9.79D-05 NDo=     1
 LinEq1:  Iter= 10 NonCon=     1 RMS=1.41D-06 Max=2.69D-05 NDo=     1
 LinEq1:  Iter= 11 NonCon=     1 RMS=2.70D-07 Max=6.10D-06 NDo=     1
 LinEq1:  Iter= 12 NonCon=     1 RMS=9.89D-08 Max=2.91D-06 NDo=     1
 LinEq1:  Iter= 13 NonCon=     1 RMS=3.46D-08 Max=4.76D-07 NDo=     1
 LinEq1:  Iter= 14 NonCon=     1 RMS=7.03D-09 Max=1.18D-07 NDo=     1
 LinEq1:  Iter= 15 NonCon=     0 RMS=1.97D-09 Max=3.24D-08 NDo=     1
 Linear equations converged to 5.756D-09 5.756D-08 after    15 iterations.
     Accept linear search using points  1 and  2.
 Gradient too large for Newton-Raphson -- use scaled steepest descent instead.
 LinEq1:  Iter=  0 NonCon=     1 RMS=1.37D-04 Max=5.60D-03 NDo=     1
 LinEq1:  Iter=  1 NonCon=     1 RMS=2.66D-04 Max=1.34D-02 NDo=     1
 LinEq1:  Iter=  2 NonCon=     1 RMS=7.24D-04 Max=2.39D-02 NDo=     1
 LinEq1:  Iter=  3 NonCon=     1 RMS=7.04D-04 Max=1.17D-02 NDo=     1
 LinEq1:  Iter=  4 NonCon=     1 RMS=3.42D-04 Max=8.63D-03 NDo=     1
 LinEq1:  Iter=  5 NonCon=     1 RMS=1.38D-04 Max=4.78D-03 NDo=     1
 LinEq1:  Iter=  6 NonCon=     1 RMS=4.27D-05 Max=9.65D-04 NDo=     1
 LinEq1:  Iter=  7 NonCon=     1 RMS=1.17D-05 Max=2.21D-04 NDo=     1
 LinEq1:  Iter=  8 NonCon=     1 RMS=3.49D-06 Max=6.05D-05 NDo=     1
 LinEq1:  Iter=  9 NonCon=     1 RMS=3.08D-06 Max=7.54D-05 NDo=     1
 LinEq1:  Iter= 10 NonCon=     1 RMS=1.62D-06 Max=5.86D-05 NDo=     1
 LinEq1:  Iter= 11 NonCon=     1 RMS=4.82D-07 Max=9.15D-06 NDo=     1
 LinEq1:  Iter= 12 NonCon=     1 RMS=1.12D-07 Max=1.89D-06 NDo=     1
 LinEq1:  Iter= 13 NonCon=     1 RMS=3.64D-08 Max=1.25D-06 NDo=     1
 LinEq1:  Iter= 14 NonCon=     1 RMS=1.40D-08 Max=4.19D-07 NDo=     1
 LinEq1:  Iter= 15 NonCon=     1 RMS=3.49D-09 Max=6.54D-08 NDo=     1
 LinEq1:  Iter= 16 NonCon=     0 RMS=8.01D-10 Max=1.47D-08 NDo=     1
 Linear equations converged to 5.756D-09 5.756D-08 after    16 iterations.
     Accept linear search using points  1 and  2.
     Minimum is close to point  2 DX= -7.67D-02 DF= -4.62D-07 DXR=  8.30D-02 DFR=  7.58D-03 which will be used.
 LinEq1:  Iter=  0 NonCon=     1 RMS=8.03D-04 Max=4.62D-02 NDo=     1
 LinEq1:  Iter=  1 NonCon=     1 RMS=1.70D-04 Max=7.14D-03 NDo=     1
 LinEq1:  Iter=  2 NonCon=     1 RMS=1.16D-04 Max=2.60D-03 NDo=     1
 LinEq1:  Iter=  3 NonCon=     1 RMS=5.60D-05 Max=1.33D-03 NDo=     1
 LinEq1:  Iter=  4 NonCon=     1 RMS=3.17D-05 Max=6.52D-04 NDo=     1
 LinEq1:  Iter=  5 NonCon=     1 RMS=3.48D-05 Max=9.00D-04 NDo=     1
 LinEq1:  Iter=  6 NonCon=     1 RMS=1.24D-05 Max=2.91D-04 NDo=     1
 LinEq1:  Iter=  7 NonCon=     1 RMS=5.13D-06 Max=1.62D-04 NDo=     1
 LinEq1:  Iter=  8 NonCon=     1 RMS=1.92D-06 Max=6.26D-05 NDo=     1
 LinEq1:  Iter=  9 NonCon=     1 RMS=5.09D-07 Max=8.38D-06 NDo=     1
 LinEq1:  Iter= 10 NonCon=     1 RMS=1.32D-07 Max=2.45D-06 NDo=     1
 LinEq1:  Iter= 11 NonCon=     1 RMS=2.29D-08 Max=3.80D-07 NDo=     1
 LinEq1:  Iter= 12 NonCon=     1 RMS=6.53D-09 Max=1.78D-07 NDo=     1
 LinEq1:  Iter= 13 NonCon=     1 RMS=2.38D-09 Max=6.36D-08 NDo=     1
 LinEq1:  Iter= 14 NonCon=     0 RMS=6.68D-10 Max=1.29D-08 NDo=     1
 Linear equations converged to 5.756D-09 5.756D-08 after    14 iterations.
     Minimum is close to point  2 DX=  1.13D-04 DF=  0.00D+00 DXR=  1.13D-04 DFR=  0.00D+00 which will be used.
 LinEq1:  Iter=  0 NonCon=     1 RMS=2.14D-07 Max=8.67D-06 NDo=     1
 LinEq1:  Iter=  1 NonCon=     1 RMS=2.97D-07 Max=1.63D-05 NDo=     1
 LinEq1:  Iter=  2 NonCon=     1 RMS=1.18D-06 Max=4.37D-05 NDo=     1
 LinEq1:  Iter=  3 NonCon=     1 RMS=8.82D-07 Max=2.28D-05 NDo=     1
 LinEq1:  Iter=  4 NonCon=     1 RMS=3.48D-07 Max=9.15D-06 NDo=     1
 LinEq1:  Iter=  5 NonCon=     1 RMS=2.75D-07 Max=8.02D-06 NDo=     1
 LinEq1:  Iter=  6 NonCon=     1 RMS=1.63D-07 Max=4.48D-06 NDo=     1
 LinEq1:  Iter=  7 NonCon=     1 RMS=5.07D-08 Max=7.72D-07 NDo=     1
 LinEq1:  Iter=  8 NonCon=     1 RMS=1.49D-08 Max=2.84D-07 NDo=     1
 LinEq1:  Iter=  9 NonCon=     1 RMS=3.73D-09 Max=1.09D-07 NDo=     1
 LinEq1:  Iter= 10 NonCon=     1 RMS=1.67D-09 Max=4.89D-08 NDo=     1
 LinEq1:  Iter= 11 NonCon=     1 RMS=7.08D-10 Max=1.24D-08 NDo=     1
 LinEq1:  Iter= 12 NonCon=     1 RMS=1.22D-10 Max=2.42D-09 NDo=     1
 LinEq1:  Iter= 13 NonCon=     1 RMS=2.34D-11 Max=4.51D-10 NDo=     1
 LinEq1:  Iter= 14 NonCon=     0 RMS=6.74D-12 Max=1.75D-10 NDo=     1
 Linear equations converged to 2.283D-11 2.283D-10 after    14 iterations.
 SCF Done:  E(UB3LYP) =  -1792.49810847     a.u. after   38 cycles
            Convg  =    0.7258D-08                   283 Fock formations.
              S**2 =  0.7628                  -V/T =  2.0006
 <Sx>= 0.0000 <Sy>= 0.0000 <Sz>= 0.5000 <S**2>= 0.7628 S= 0.5064
 <L.S>= 0.000000000000E+00
 Annihilation of the first spin contaminant:
 S**2 before annihilation     0.7628,   after     0.7500

 **********************************************************************

            Population analysis using the SCF density.

 **********************************************************************

 Orbital symmetries:
 Alpha Orbitals:
       Occupied  (A') (A') (A') (A") (A') (A') (A') (A') (A') (A")
                 (A') (A') (A') (A') (A") (A') (A") (A') (A') (A')
                 (A') (A") (A') (A")
       Virtual   (A') (A') (A') (A') (A") (A') (A') (A') (A') (A")
                 (A') (A") (A') (A') (A') (A") (A') (A') (A") (A')
                 (A") (A') (A') (A") (A') (A') (A') (A') (A') (A")
                 (A") (A") (A') (A') (A") (A') (A') (A') (A") (A')
                 (A') (A") (A") (A') (A') (A') (A") (A') (A') (A")
                 (A') (A') (A") (A') (A") (A') (A") (A') (A') (A")
                 (A') (A') (A') (A") (A') (A') (A') (A') (A') (A')
 Beta  Orbitals:
       Occupied  (A') (A') (A') (A') (A") (A') (A') (A') (A') (A')
                 (A") (A') (A') (A') (A") (A') (A") (A') (A') (A")
                 (A') (A") (A')
       Virtual   (A') (A') (A') (A') (A') (A") (A') (A') (A') (A')
                 (A") (A') (A") (A') (A') (A') (A") (A') (A') (A")
                 (A') (A") (A') (A') (A") (A') (A') (A') (A') (A')
                 (A") (A") (A") (A") (A') (A') (A') (A') (A') (A")
                 (A') (A') (A") (A') (A") (A") (A') (A') (A') (A")
                 (A') (A') (A') (A") (A') (A") (A') (A") (A') (A')
                 (A") (A') (A') (A') (A") (A') (A') (A') (A') (A')
                 (A')
 The electronic state is 2-A'.
 Alpha  occ. eigenvalues -- -323.45796 -39.25292 -34.48594 -34.46825 -34.46745
 Alpha  occ. eigenvalues --  -19.56542 -19.56333  -4.78852  -3.31027  -3.27351
 Alpha  occ. eigenvalues --   -3.27203  -1.45639  -1.44155  -1.03537  -1.01010
 Alpha  occ. eigenvalues --   -0.87526  -0.79588  -0.77367  -0.77234  -0.76184
 Alpha  occ. eigenvalues --   -0.75888  -0.75834  -0.75748  -0.73576
 Alpha virt. eigenvalues --   -0.50588  -0.32163  -0.30720  -0.24115  -0.20898
 Alpha virt. eigenvalues --   -0.18792  -0.04507  -0.02709   0.04304   0.12111
 Alpha virt. eigenvalues --    0.28040   0.30840   0.34272   0.37055   0.43363
 Alpha virt. eigenvalues --    0.52849   0.68148   0.74602   0.82899   0.85229
 Alpha virt. eigenvalues --    0.98446   0.98508   0.99263   1.01872   1.20509
 Alpha virt. eigenvalues --    1.27046   1.54585   1.55458   1.72465   1.73636
 Alpha virt. eigenvalues --    2.27971   2.28607   2.35869   2.36020   2.37405
 Alpha virt. eigenvalues --    2.53093   2.69391   2.71705   2.73368   3.03761
 Alpha virt. eigenvalues --    3.03931   3.47791   3.48310   3.48361   3.48564
 Alpha virt. eigenvalues --    3.48890   3.48897   3.49087   4.27235   4.29935
 Alpha virt. eigenvalues --    4.35358   4.43873   4.64897   4.67108   6.70038
 Alpha virt. eigenvalues --    6.70154   6.71906   6.75967   6.80170   8.79647
 Alpha virt. eigenvalues --    8.85184   9.08053  31.48033  42.25681  42.29323
 Alpha virt. eigenvalues --   42.44169  49.26837  49.29537 183.54759 978.80336
  Beta  occ. eigenvalues -- -323.45794 -39.24078 -34.46937 -34.46151 -34.46124
  Beta  occ. eigenvalues --  -19.56411 -19.54952  -4.76362  -3.26397  -3.25696
  Beta  occ. eigenvalues --   -3.25569  -1.45342  -1.40639  -1.03435  -1.00049
  Beta  occ. eigenvalues --   -0.85266  -0.79014  -0.76267  -0.74725  -0.74436
  Beta  occ. eigenvalues --   -0.74418  -0.73079  -0.65689
  Beta virt. eigenvalues --   -0.63000  -0.49760  -0.32086  -0.30219  -0.24065
  Beta virt. eigenvalues --   -0.20636  -0.18642  -0.04459  -0.02358   0.04417
  Beta virt. eigenvalues --    0.12267   0.28704   0.30950   0.37741   0.38605
  Beta virt. eigenvalues --    0.43512   0.53533   0.68475   0.76439   0.83572
  Beta virt. eigenvalues --    0.85731   0.99103   0.99326   1.02019   1.02230
  Beta virt. eigenvalues --    1.20902   1.28186   1.54920   1.55589   1.72539
  Beta virt. eigenvalues --    1.73535   2.28707   2.32499   2.37775   2.40091
  Beta virt. eigenvalues --    2.40385   2.53676   2.69691   2.72941   2.74128
  Beta virt. eigenvalues --    3.04015   3.05864   3.48485   3.48550   3.49745
  Beta virt. eigenvalues --    3.49906   3.49933   3.50959   3.51501   4.30048
  Beta virt. eigenvalues --    4.33313   4.36595   4.44498   4.66128   4.67225
  Beta virt. eigenvalues --    6.71173   6.71304   6.72656   6.76757   6.85004
  Beta virt. eigenvalues --    8.80800   8.86171   9.10781  31.49649  42.26591
  Beta virt. eigenvalues --   42.30108  42.46364  49.28230  49.29672 183.55369
  Beta virt. eigenvalues --  978.80457
          Condensed to atoms (all electrons):
               1          2          3          4          5          6
     1  Cu  27.627467   0.005114   0.112240  -0.005577  -0.005512  -0.000259
     2  O    0.005114   8.065154  -0.000004  -0.000008   0.000037   0.250538
     3  O    0.112240  -0.000004   8.331937   0.244599   0.246252   0.000004
     4  H   -0.005577  -0.000008   0.244599   0.192617  -0.009091   0.000001
     5  H   -0.005512   0.000037   0.246252  -0.009091   0.201869   0.000000
     6  H   -0.000259   0.250538   0.000004   0.000001   0.000000   0.213196
     7  H   -0.000259   0.250538   0.000004   0.000001   0.000000  -0.011333
               7
     1  Cu  -0.000259
     2  O    0.250538
     3  O    0.000004
     4  H    0.000001
     5  H    0.000000
     6  H   -0.011333
     7  H    0.213196
          Atomic-Atomic Spin Densities.
               1          2          3          4          5          6
     1  Cu   0.444650  -0.000523  -0.009181   0.000070   0.000327   0.000020
     2  O   -0.000523   0.562468   0.000002   0.000000   0.000014  -0.006388
     3  O   -0.009181   0.000002   0.056102   0.000194   0.000248   0.000000
     4  H    0.000070   0.000000   0.000194  -0.000965  -0.000062   0.000000
     5  H    0.000327   0.000014   0.000248  -0.000062  -0.001075   0.000000
     6  H    0.000020  -0.006388   0.000000   0.000000   0.000000  -0.009551
     7  H    0.000020  -0.006388   0.000000   0.000000   0.000000   0.000604
               7
     1  Cu   0.000020
     2  O   -0.006388
     3  O    0.000000
     4  H    0.000000
     5  H    0.000000
     6  H    0.000604
     7  H   -0.009551
 Mulliken charges and spin densities:
               1          2
     1  Cu   1.266785   0.435383
     2  O   -0.571368   0.549186
     3  O   -0.935032   0.047367
     4  H    0.577458  -0.000763
     5  H    0.566447  -0.000546
     6  H    0.547855  -0.015313
     7  H    0.547855  -0.015313
 Sum of Mulliken charges =   2.00000   1.00000
 Mulliken charges and spin densities with hydrogens summed into heavy atoms:
               1          2
     1  Cu   1.266785   0.435383
     2  O    0.524341   0.518559
     3  O    0.208874   0.046058
 Electronic spatial extent (au):  <R**2>=            601.4860
 Charge=              2.0000 electrons
 Dipole moment (field-independent basis, Debye):
    X=             -2.0288    Y=             -3.2691    Z=              0.0000  Tot=              3.8475
 Quadrupole moment (field-independent basis, Debye-Ang):
   XX=              3.9888   YY=             13.3598   ZZ=            -16.6639
   XY=             19.6345   XZ=              0.0000   YZ=              0.0000
 Traceless Quadrupole moment (field-independent basis, Debye-Ang):
   XX=              3.7606   YY=             13.1316   ZZ=            -16.8922
   XY=             19.6345   XZ=              0.0000   YZ=              0.0000
 Octapole moment (field-independent basis, Debye-Ang**2):
  XXX=              1.7232  YYY=            -51.9002  ZZZ=              0.0000  XYY=            -45.9948
  XXY=            -24.3902  XXZ=              0.0000  XZZ=            -10.9623  YZZ=             -6.7890
  YYZ=              0.0000  XYZ=              0.0000
 Hexadecapole moment (field-independent basis, Debye-Ang**3):
 XXXX=           -142.4633 YYYY=            -49.9865 ZZZZ=            -11.2643 XXXY=             -3.4360
 XXXZ=              0.0000 YYYX=             73.9798 YYYZ=              0.0000 ZZZX=              0.0000
 ZZZY=              0.0000 XXYY=             46.2783 XXZZ=            -31.7197 YYZZ=            -15.3019
 XXYZ=              0.0000 YYXZ=              0.0000 ZZXY=             -9.6243
 N-N= 1.458508054955D+02 E-N=-4.556992620396D+03  KE= 1.791472741442D+03
 Symmetry A'   KE= 1.561498418384D+03
 Symmetry A"   KE= 2.299743230576D+02
                          Isotropic Fermi Contact Couplings
        Atom                 a.u.       MegaHertz       Gauss      10(-4) cm-1
     1  Cu(63)            -0.13073    -155.05796     -55.32853     -51.72177
     2  O(17)              0.06244     -37.84927     -13.50556     -12.62516
     3  O(17)              0.02940     -17.82312      -6.35973      -5.94515
     4  H(1)              -0.00034      -1.50559      -0.53723      -0.50221
     5  H(1)              -0.00037      -1.63349      -0.58287      -0.54487
     6  H(1)              -0.00821     -36.69367     -13.09321     -12.23969
     7  H(1)              -0.00821     -36.69367     -13.09321     -12.23969
 --------------------------------------------------------
       Center         ----  Spin Dipole Couplings  ----
                      3XX-RR        3YY-RR        3ZZ-RR
 --------------------------------------------------------
     1   Atom        2.111203     -1.167214     -0.943989
     2   Atom        1.122046     -0.049035     -1.073011
     3   Atom        0.195825     -0.092897     -0.102928
     4   Atom        0.008225      0.002902     -0.011127
     5   Atom        0.004392      0.007196     -0.011588
     6   Atom       -0.035789     -0.042622      0.078412
     7   Atom       -0.035789     -0.042622      0.078412
 --------------------------------------------------------
                        XY            XZ            YZ
 --------------------------------------------------------
     1   Atom       -0.566125      0.000000      0.000000
     2   Atom       -1.504756      0.000000      0.000000
     3   Atom       -0.046925      0.000000      0.000000
     4   Atom        0.007537      0.000000      0.000000
     5   Atom       -0.006046      0.000000      0.000000
     6   Atom       -0.011241     -0.026506     -0.043248
     7   Atom       -0.011241      0.026506      0.043248
 --------------------------------------------------------


 ---------------------------------------------------------------------------------
              Anisotropic Spin Dipole Couplings in Principal Axis System
 ---------------------------------------------------------------------------------

       Atom             a.u.   MegaHertz   Gauss  10(-4) cm-1        Axes

              Baa    -1.2622  -178.707   -63.767   -59.610  0.1655  0.9862  0.0000
     1 Cu(63) Bbb    -0.9440  -133.652   -47.690   -44.581  0.0000  0.0000  1.0000
              Bcc     2.2062   312.359   111.457   104.192  0.9862 -0.1655  0.0000
 
              Baa    -1.0782    78.015    27.838    26.023  0.5645  0.8254  0.0000
     2 O(17)  Bbb    -1.0730    77.642    27.705    25.899  0.0000  0.0000  1.0000
              Bcc     2.1512  -155.657   -55.542   -51.922  0.8254 -0.5645  0.0000
 
              Baa    -0.1029     7.448     2.658     2.484  0.0000  0.0000  1.0000
     3 O(17)  Bbb    -0.1003     7.260     2.591     2.422  0.1565  0.9877  0.0000
              Bcc     0.2033   -14.708    -5.248    -4.906  0.9877 -0.1565  0.0000
 
              Baa    -0.0111    -5.937    -2.118    -1.980  0.0000  0.0000  1.0000
     4 H(1)   Bbb    -0.0024    -1.296    -0.463    -0.432 -0.5775  0.8164  0.0000
              Bcc     0.0136     7.233     2.581     2.413  0.8164  0.5775  0.0000
 
              Baa    -0.0116    -6.183    -2.206    -2.062  0.0000  0.0000  1.0000
     5 H(1)   Bbb    -0.0004    -0.220    -0.079    -0.073  0.7829  0.6221  0.0000
              Bcc     0.0120     6.403     2.285     2.136 -0.6221  0.7829  0.0000
 
              Baa    -0.0684   -36.496   -13.023   -12.174  0.5340  0.7800  0.3262
     6 H(1)   Bbb    -0.0275   -14.699    -5.245    -4.903  0.8290 -0.5588 -0.0207
              Bcc     0.0960    51.195    18.268    17.077 -0.1661 -0.2815  0.9451
 
              Baa    -0.0684   -36.496   -13.023   -12.174  0.5340  0.7800 -0.3262
     7 H(1)   Bbb    -0.0275   -14.699    -5.245    -4.903  0.8290 -0.5588  0.0207
              Bcc     0.0960    51.195    18.268    17.077  0.1661  0.2815  0.9451
 

 ---------------------------------------------------------------------------------

 Calling FoFJK, ICntrl=      2127 FMM=F ISym2X=1 I1Cent= 0 IOpClX= 1 NMat=1 NMatS=1 NMatT=0.
 ***** Axes restored to original set *****
 -------------------------------------------------------------------
 Center     Atomic                   Forces (Hartrees/Bohr)
 Number     Number              X              Y              Z
 -------------------------------------------------------------------
      1       29          -0.006575359    0.000000003   -0.002135228
      2        8           0.004798452    0.000000000   -0.072951715
      3        8          -0.076995279   -0.000000003    0.031021731
      4        1           0.042033645    0.000000000   -0.015600704
      5        1           0.041676689    0.000000000   -0.018223956
      6        1          -0.002469074    0.006961599    0.038944936
      7        1          -0.002469074   -0.006961599    0.038944936
 -------------------------------------------------------------------
 Cartesian Forces:  Max     0.076995279 RMS     0.030476531

 GradGradGradGradGradGradGradGradGradGradGradGradGradGradGradGradGradGrad
 Berny optimization.
 FormGI is forming the generalized inverse of G from B-inverse, IUseBI=4.
 Internal  Forces:  Max     0.051424538 RMS     0.020212571
 Search for a local minimum.
 Step number   1 out of a maximum of  100 on scan point     1 out of    26
 All quantities printed in internal units (Hartrees-Bohrs-Radians)
 Mixed Optimization -- RFO/linear search
 Second derivative matrix not updated -- first step.
 The second derivative matrix:
                          R1        R2        R3        R4        R5
           R1           0.00858
           R2           0.00000   0.19001
           R3           0.00000   0.00000   0.57681
           R4           0.00000   0.00000   0.00000   0.57681
           R5           0.00000   0.00000   0.00000   0.00000   0.57681
           R6           0.00000   0.00000   0.00000   0.00000   0.00000
           A1           0.00000   0.00000   0.00000   0.00000   0.00000
           A2           0.00000   0.00000   0.00000   0.00000   0.00000
           A3           0.00000   0.00000   0.00000   0.00000   0.00000
           A4           0.00000   0.00000   0.00000   0.00000   0.00000
           A5           0.00000   0.00000   0.00000   0.00000   0.00000
           A6           0.00000   0.00000   0.00000   0.00000   0.00000
           A7           0.00000   0.00000   0.00000   0.00000   0.00000
           D1           0.00000   0.00000   0.00000   0.00000   0.00000
           D2           0.00000   0.00000   0.00000   0.00000   0.00000
           D3           0.00000   0.00000   0.00000   0.00000   0.00000
           D4           0.00000   0.00000   0.00000   0.00000   0.00000
           D5           0.00000   0.00000   0.00000   0.00000   0.00000
           D6           0.00000   0.00000   0.00000   0.00000   0.00000
                          R6        A1        A2        A3        A4
           R6           0.57681
           A1           0.00000   0.25000
           A2           0.00000   0.00000   0.16000
           A3           0.00000   0.00000   0.00000   0.16000
           A4           0.00000   0.00000   0.00000   0.00000   0.16000
           A5           0.00000   0.00000   0.00000   0.00000   0.00000
           A6           0.00000   0.00000   0.00000   0.00000   0.00000
           A7           0.00000   0.00000   0.00000   0.00000   0.00000
           D1           0.00000   0.00000   0.00000   0.00000   0.00000
           D2           0.00000   0.00000   0.00000   0.00000   0.00000
           D3           0.00000   0.00000   0.00000   0.00000   0.00000
           D4           0.00000   0.00000   0.00000   0.00000   0.00000
           D5           0.00000   0.00000   0.00000   0.00000   0.00000
           D6           0.00000   0.00000   0.00000   0.00000   0.00000
                          A5        A6        A7        D1        D2
           A5           0.16000
           A6           0.00000   0.16000
           A7           0.00000   0.00000   0.16000
           D1           0.00000   0.00000   0.00000   0.00230
           D2           0.00000   0.00000   0.00000   0.00000   0.00230
           D3           0.00000   0.00000   0.00000   0.00000   0.00000
           D4           0.00000   0.00000   0.00000   0.00000   0.00000
           D5           0.00000   0.00000   0.00000   0.00000   0.00000
           D6           0.00000   0.00000   0.00000   0.00000   0.00000
                          D3        D4        D5        D6
           D3           0.03612
           D4           0.00000   0.03612
           D5           0.00000   0.00000   0.01690
           D6           0.00000   0.00000   0.00000   0.01690
 ITU=  0
     Eigenvalues ---    0.00230   0.01424   0.02039   0.03612   0.16000
     Eigenvalues ---    0.16000   0.16000   0.16000   0.19001   0.57681
     Eigenvalues ---    0.57681   0.57681   0.576811000.000001000.00000
     Eigenvalues --- 1000.000001000.000001000.000001000.00000
 RFO step:  Lambda=-3.55456557D-02 EMin= 2.30000000D-03
 Linear search not attempted -- first point.
 Maximum step size (   0.300) exceeded in Quadratic search.
    -- Step size scaled by   0.718
 Iteration  1 RMS(Cart)=  0.06877256 RMS(Int)=  0.00340393
 Iteration  2 RMS(Cart)=  0.00325257 RMS(Int)=  0.00065327
 Iteration  3 RMS(Cart)=  0.00000432 RMS(Int)=  0.00065325
 Iteration  4 RMS(Cart)=  0.00000001 RMS(Int)=  0.00065325
 Iteration  1 RMS(Cart)=  0.00000000 RMS(Int)=  0.00000000
 ClnCor:  largest displacement from symmetrization is 2.88D-05 for atom     7.
 Variable       Old X    -DE/DX   Delta X   Delta X   Delta X     New X
                                 (Linear)    (Quad)   (Total)
    R1        7.34197   0.00494   0.00000   0.00000   0.00000   7.34197
    R2        3.56225   0.00727   0.00000   0.02316   0.02316   3.58541
    R3        1.79524   0.01954   0.00000   0.02293   0.02293   1.81817
    R4        1.79524   0.01954   0.00000   0.02293   0.02293   1.81817
    R5        1.79524   0.01521   0.00000   0.01784   0.01784   1.81308
    R6        1.79524   0.01243   0.00000   0.01458   0.01458   1.80982
    A1        1.91986   0.00402   0.00000   0.00000   0.00000   1.91986
    A2        1.91063   0.02058   0.00000   0.07560   0.07547   1.98611
    A3        1.91063   0.02058   0.00000   0.07560   0.07547   1.98611
    A4        2.46192  -0.04117   0.00000  -0.15121  -0.15131   2.31061
    A5        1.91063   0.02429   0.00000   0.08924   0.08924   1.99987
    A6        1.91063   0.02713   0.00000   0.09965   0.09965   2.01028
    A7        2.46192  -0.05142   0.00000  -0.18889  -0.18889   2.27303
    D1        1.57080   0.00076   0.00000   0.01097   0.01271   1.58351
    D2       -1.57080  -0.00076   0.00000  -0.01097  -0.01271  -1.58351
    D3        3.14159   0.00000   0.00000   0.00000   0.00000   3.14159
    D4        0.00000   0.00000   0.00000   0.00000   0.00000   0.00000
    D5        3.14159  -0.00228   0.00000  -0.03291  -0.03150   3.11009
    D6        3.14159   0.00000   0.00000   0.00000   0.00000   3.14159
         Item               Value     Threshold  Converged?
 Maximum Force            0.051425     0.000450     NO 
 RMS     Force            0.021313     0.000300     NO 
 Maximum Displacement     0.153227     0.001800     NO 
 RMS     Displacement     0.069403     0.001200     NO 
 Predicted change in Energy=-1.798460D-02
 GradGradGradGradGradGradGradGradGradGradGradGradGradGradGradGradGradGrad

                          Input orientation:                          
 ---------------------------------------------------------------------
 Center     Atomic      Atomic             Coordinates (Angstroms)
 Number     Number       Type             X           Y           Z
 ---------------------------------------------------------------------
      1         29           0       -0.033160    0.000000   -0.004333
      2          8           0       -0.010629    0.000000    3.880804
      3          8           0        1.745941    0.000000   -0.663582
      4          1           0        1.817075    0.000000   -1.620383
      5          1           0        2.429183    0.000000    0.007534
      6          1           0       -0.019570    0.880273    4.269059
      7          1           0       -0.019570   -0.880273    4.269059
 ---------------------------------------------------------------------
                    Distance matrix (angstroms):
                    1          2          3          4          5
     1  Cu   0.000000
     2  O    3.885203   0.000000
     3  O    1.897316   4.872061   0.000000
     4  H    2.456621   5.796858   0.959442   0.000000
     5  H    2.462371   4.577653   0.957713   1.739191   0.000000
     6  H    4.363135   0.962134   5.312518   6.231666   4.993182
     7  H    4.363135   0.962134   5.312518   6.231666   4.993182
                    6          7
     6  H    0.000000
     7  H    1.760547   0.000000
 Stoichiometry    CuH4O2(2+,2)
 Framework group  CS[SG(CuH2O2),X(H2)]
 Deg. of freedom    10
 Full point group                 CS      NOp   2
 Largest Abelian subgroup         CS      NOp   2
 Largest concise Abelian subgroup CS      NOp   2
                         Standard orientation:                         
 ---------------------------------------------------------------------
 Center     Atomic      Atomic             Coordinates (Angstroms)
 Number     Number       Type             X           Y           Z
 ---------------------------------------------------------------------
      1         29           0        0.000000    0.770178    0.000000
      2          8           0       -1.911017   -2.612545    0.000000
      3          8           0        1.871494    0.458219    0.000000
      4          1           0        2.408670    1.253185    0.000000
      5          1           0        2.130927   -0.463686    0.000000
      6          1           0       -2.111704   -2.945030    0.880273
      7          1           0       -2.111704   -2.945030   -0.880273
 ---------------------------------------------------------------------
 Rotational constants (GHZ):     11.7235522      1.9274064      1.6723827
 Standard basis: 6-311G(d) (5D, 7F)
 There are    74 symmetry adapted cartesian basis functions of A'  symmetry.
 There are    28 symmetry adapted cartesian basis functions of A"  symmetry.
 There are    67 symmetry adapted basis functions of A'  symmetry.
 There are    27 symmetry adapted basis functions of A"  symmetry.
    94 basis functions,   165 primitive gaussians,   102 cartesian basis functions
    24 alpha electrons       23 beta electrons
       nuclear repulsion energy       144.6390529352 Hartrees.
 NAtoms=    7 NActive=    7 NUniq=    6 SFac= 1.36D+00 NAtFMM=   60 NAOKFM=F Big=F
 Integral buffers will be    131072 words long.
 Raffenetti 2 integral format.
 Two-electron integral symmetry is turned on.
 One-electron integrals computed using PRISM.
 NBasis=    94 RedAO= T EigKep=  1.33D-02  NBF=    67    27
 NBsUse=    94 1.00D-06 EigRej= -1.00D+00 NBFU=    67    27
 Initial guess from the checkpoint file:  "pescuh2o2.chk"
 B after Tr=     0.000000    0.000000    0.000000
         Rot=    0.999994    0.000000    0.000000    0.003385 Ang=   0.39 deg.
 Initial guess orbital symmetries:
 Alpha Orbitals:
       Occupied  (A') (A') (A') (A") (A') (A') (A') (A') (A') (A")
                 (A') (A') (A') (A') (A") (A') (A") (A') (A') (A')
                 (A') (A") (A') (A")
       Virtual   (A') (A') (A') (A') (A') (A') (A') (A') (A') (A')
                 (A') (A') (A') (A') (A') (A') (A') (A') (A') (A')
                 (A') (A') (A') (A') (A') (A') (A') (A') (A') (A')
                 (A') (A') (A') (A') (A') (A') (A') (A') (A') (A')
                 (A') (A') (A') (A') (A') (A') (A') (A') (A') (A")
                 (A") (A") (A") (A") (A") (A") (A") (A") (A") (A")
                 (A") (A") (A") (A") (A") (A") (A") (A") (A") (A")
 Beta  Orbitals:
       Occupied  (A') (A') (A') (A') (A") (A') (A') (A') (A') (A')
                 (A") (A') (A') (A') (A") (A') (A") (A') (A') (A")
                 (A') (A") (A')
       Virtual   (A') (A') (A') (A') (A') (A') (A') (A') (A') (A')
                 (A') (A') (A') (A') (A') (A') (A') (A') (A') (A')
                 (A') (A') (A') (A') (A') (A') (A') (A') (A') (A')
                 (A') (A') (A') (A') (A') (A') (A') (A') (A') (A')
                 (A') (A') (A') (A') (A') (A') (A') (A') (A') (A')
                 (A") (A") (A") (A") (A") (A") (A") (A") (A") (A")
                 (A") (A") (A") (A") (A") (A") (A") (A") (A") (A")
                 (A")
 Initial guess <Sx>= 0.0000 <Sy>= 0.0000 <Sz>= 0.5000 <S**2>= 0.7629 S= 0.5064
 ExpMin= 4.08D-02 ExpMax= 3.37D+05 ExpMxC= 1.14D+04 IAcc=2 IRadAn=         4 AccDes= 0.00D+00
 Harris functional with IExCor=  402 and IRadAn=       4 diagonalized for initial guess.
 HarFok:  IExCor=  402 AccDes= 0.00D+00 IRadAn=         4 IDoV= 1 UseB2=F ITyADJ=14
 ICtDFT=  3500011 ScaDFX=  1.000000  1.000000  1.000000  1.000000
 FoFCou: FMM=F IPFlag=           0 FMFlag=      100000 FMFlg1=           0
         NFxFlg=           0 DoJE=T BraDBF=F KetDBF=T FulRan=T
         wScrn=  0.000000 ICntrl=     500 IOpCl=  0 I1Cent=   200000004 NGrid=           0
         NMat0=    1 NMatS0=      1 NMatT0=    0 NMatD0=    1 NMtDS0=    0 NMtDT0=    0
 Petite list used in FoFCou.
 Keep R1 and R2 ints in memory in symmetry-blocked form, NReq=15545797.
 Requested convergence on RMS density matrix=1.00D-08 within  64 cycles.
 Requested convergence on MAX density matrix=1.00D-06.
 Requested convergence on             energy=1.00D-06.
 No special actions if energy rises.
 EnCoef did    11 forward-backward iterations
 SCF Done:  E(UB3LYP) =  -1792.52087591     A.U. after   17 cycles
            NFock= 17  Conv=0.50D-08     -V/T= 2.0006
 <Sx>= 0.0000 <Sy>= 0.0000 <Sz>= 0.5000 <S**2>= 0.7622 S= 0.5061
 <L.S>= 0.000000000000E+00
 Annihilation of the first spin contaminant:
 S**2 before annihilation     0.7622,   after     0.7500
 QCSCF skips out because SCF is already converged.
 Calling FoFJK, ICntrl=      2127 FMM=F ISym2X=1 I1Cent= 0 IOpClX= 1 NMat=1 NMatS=1 NMatT=0.
 ***** Axes restored to original set *****
 -------------------------------------------------------------------
 Center     Atomic                   Forces (Hartrees/Bohr)
 Number     Number              X              Y              Z
 -------------------------------------------------------------------
      1       29          -0.000236177    0.000000000   -0.003888415
      2        8           0.004733662    0.000000000   -0.057853225
      3        8          -0.057060064    0.000000000    0.021854470
      4        1           0.030997243    0.000000000   -0.004014049
      5        1           0.026436264    0.000000000   -0.018546580
      6        1          -0.002435464   -0.003817834    0.031223900
      7        1          -0.002435464    0.003817834    0.031223900
 -------------------------------------------------------------------
 Cartesian Forces:  Max     0.057853225 RMS     0.023020405

 GradGradGradGradGradGradGradGradGradGradGradGradGradGradGradGradGradGrad
 Berny optimization.
 Using GEDIIS/GDIIS optimizer.
 FormGI is forming the generalized inverse of G from B-inverse, IUseBI=4.
 Internal  Forces:  Max     0.037663010 RMS     0.015239744
 Search for a local minimum.
 Step number   2 out of a maximum of  100 on scan point     1 out of    26
 All quantities printed in internal units (Hartrees-Bohrs-Radians)
 Mixed Optimization -- RFO/linear search
 Update second derivatives using D2CorX and points    1    2
 DE= -2.28D-02 DEPred=-1.80D-02 R= 1.27D+00
 TightC=F SS=  1.41D+00  RLast= 3.02D-01 DXNew= 5.0454D-01 9.0645D-01
 Trust test= 1.27D+00 RLast= 3.02D-01 DXMaxT set to 5.05D-01
 The second derivative matrix:
                          R1        R2        R3        R4        R5
           R1           0.00860
           R2           0.00040   0.19632
           R3           0.00062   0.00802   0.58376
           R4           0.00062   0.00802   0.00695   0.58376
           R5           0.00053   0.00716   0.00685   0.00685   0.58337
           R6           0.00039   0.00503   0.00431   0.00431   0.00426
           A1           0.00001   0.00022   0.00034   0.00034   0.00029
           A2           0.00014  -0.00084  -0.00639  -0.00639  -0.00465
           A3           0.00014  -0.00086  -0.00643  -0.00643  -0.00469
           A4          -0.00028   0.00178   0.01297   0.01297   0.00945
           A5           0.00038   0.00318  -0.00105  -0.00105   0.00008
           A6           0.00043   0.00369  -0.00094  -0.00094   0.00028
           A7          -0.00082  -0.00687   0.00199   0.00199  -0.00035
           D1          -0.00003  -0.00054  -0.00086  -0.00086  -0.00074
           D2           0.00003   0.00054   0.00086   0.00086   0.00074
           D3           0.00000   0.00000   0.00000   0.00000   0.00000
           D4           0.00000   0.00000   0.00000   0.00000   0.00000
           D5          -0.00003  -0.00046  -0.00049  -0.00049  -0.00046
           D6           0.00000   0.00000   0.00000   0.00000   0.00000
                          R6        A1        A2        A3        A4
           R6           0.57948
           A1           0.00021   0.25001
           A2          -0.00409   0.00008   0.15128
           A3          -0.00411   0.00008  -0.00873   0.15127
           A4           0.00829  -0.00015   0.01751   0.01753   0.12483
           A5          -0.00073   0.00021  -0.00883  -0.00886   0.01781
           A6          -0.00068   0.00024  -0.00981  -0.00984   0.01978
           A7           0.00141  -0.00045   0.01865   0.01870  -0.03759
           D1          -0.00054  -0.00002  -0.00021  -0.00021   0.00042
           D2           0.00054   0.00002   0.00021   0.00021  -0.00042
           D3           0.00000   0.00000   0.00000   0.00000   0.00000
           D4           0.00000   0.00000   0.00000   0.00000   0.00000
           D5          -0.00031  -0.00002   0.00021   0.00021  -0.00043
           D6           0.00000   0.00000   0.00000   0.00000   0.00000
                          A5        A6        A7        D1        D2
           A5           0.15358
           A6          -0.00703   0.15231
           A7           0.01344   0.01471   0.13184
           D1          -0.00054  -0.00062   0.00116   0.00234
           D2           0.00054   0.00062  -0.00116  -0.00004   0.00234
           D3           0.00000   0.00000   0.00000   0.00000   0.00000
           D4           0.00000   0.00000   0.00000   0.00000   0.00000
           D5          -0.00009  -0.00011   0.00020   0.00004  -0.00004
           D6           0.00000   0.00000   0.00000   0.00000   0.00000
                          D3        D4        D5        D6
           D3           0.03612
           D4           0.00000   0.03612
           D5           0.00000   0.00000   0.01693
           D6           0.00000   0.00000   0.00000   0.01690
 ITU=  1  0
 Use linear search instead of GDIIS.
 Linear search step of   0.600 exceeds DXMaxT=   0.505 but not scaled.
 Quartic linear search produced a step of  2.00000.
 Iteration  1 RMS(Cart)=  0.10528862 RMS(Int)=  0.04145983
 Iteration  2 RMS(Cart)=  0.04145273 RMS(Int)=  0.00350985
 Iteration  3 RMS(Cart)=  0.00121792 RMS(Int)=  0.00326384
 Iteration  4 RMS(Cart)=  0.00000131 RMS(Int)=  0.00326384
 Iteration  5 RMS(Cart)=  0.00000000 RMS(Int)=  0.00326384
 Iteration  1 RMS(Cart)=  0.00000000 RMS(Int)=  0.00000000
 ClnCor:  largest displacement from symmetrization is 6.39D-04 for atom     7.
 Variable       Old X    -DE/DX   Delta X   Delta X   Delta X     New X
                                 (Linear)    (Quad)   (Total)
    R1        7.34197   0.00459   0.00000   0.00000   0.00000   7.34197
    R2        3.58541   0.00060   0.04632   0.00000   0.04632   3.63172
    R3        1.81817   0.00913   0.04586   0.00000   0.04601   1.86418
    R4        1.81817   0.00913   0.04586   0.00000   0.04601   1.86418
    R5        1.81308   0.00630   0.03568   0.00000   0.03568   1.84877
    R6        1.80982   0.00587   0.02915   0.00000   0.02915   1.83897
    A1        1.91986   0.00383   0.00000   0.00000   0.00000   1.91986
    A2        1.98611   0.01823   0.15095   0.00000   0.15016   2.13626
    A3        1.98611   0.01825   0.15095   0.00000   0.15016   2.13626
    A4        2.31061  -0.03653  -0.30263   0.00000  -0.30329   2.00731
    A5        1.99987   0.01785   0.17848   0.00000   0.17848   2.17835
    A6        2.01028   0.01981   0.19930   0.00000   0.19930   2.20958
    A7        2.27303  -0.03766  -0.37778   0.00000  -0.37778   1.89526
    D1        1.58351   0.00123   0.02543   0.00000   0.03340   1.61691
    D2       -1.58351  -0.00123  -0.02543   0.00000  -0.03340  -1.61691
    D3        3.14159   0.00000   0.00000   0.00000   0.00000   3.14159
    D4        0.00000   0.00000   0.00000   0.00000   0.00000   0.00000
    D5        3.11009  -0.00174  -0.06300   0.00000  -0.05441   3.05568
    D6        3.14159   0.00000   0.00000   0.00000   0.00000   3.14159
         Item               Value     Threshold  Converged?
 Maximum Force            0.037663     0.000450     NO 
 RMS     Force            0.016046     0.000300     NO 
 Maximum Displacement     0.349689     0.001800     NO 
 RMS     Displacement     0.142431     0.001200     NO 
 Predicted change in Energy=-2.767988D-02
 GradGradGradGradGradGradGradGradGradGradGradGradGradGradGradGradGradGrad

                          Input orientation:                          
 ---------------------------------------------------------------------
 Center     Atomic      Atomic             Coordinates (Angstroms)
 Number     Number       Type             X           Y           Z
 ---------------------------------------------------------------------
      1         29           0       -0.095318    0.000000   -0.011851
      2          8           0       -0.029918    0.000000    3.872801
      3          8           0        1.699286    0.000000   -0.699460
      4          1           0        1.933405    0.000000   -1.649359
      5          1           0        2.520611    0.000000   -0.177514
      6          1           0       -0.059411    0.832038    4.401939
      7          1           0       -0.059411   -0.832038    4.401939
 ---------------------------------------------------------------------
                    Distance matrix (angstroms):
                    1          2          3          4          5
     1  Cu   0.000000
     2  O    3.885203   0.000000
     3  O    1.921825   4.888325   0.000000
     4  H    2.607134   5.860793   0.978325   0.000000
     5  H    2.621169   4.786465   0.973140   1.584658   0.000000
     6  H    4.491672   0.986480   5.459815   6.425093   5.321671
     7  H    4.491672   0.986480   5.459815   6.425093   5.321671
                    6          7
     6  H    0.000000
     7  H    1.664075   0.000000
 Stoichiometry    CuH4O2(2+,2)
 Framework group  CS[SG(CuH2O2),X(H2)]
 Deg. of freedom    10
 Full point group                 CS      NOp   2
 Largest Abelian subgroup         CS      NOp   2
 Largest concise Abelian subgroup CS      NOp   2
                         Standard orientation:                         
 ---------------------------------------------------------------------
 Center     Atomic      Atomic             Coordinates (Angstroms)
 Number     Number       Type             X           Y           Z
 ---------------------------------------------------------------------
      1         29           0        0.000000    0.776270    0.000000
      2          8           0       -1.945290   -2.586860    0.000000
      3          8           0        1.892361    0.441036    0.000000
      4          1           0        2.582398    1.134555    0.000000
      5          1           0        2.327394   -0.429451    0.000000
      6          1           0       -2.243176   -3.025176    0.832038
      7          1           0       -2.243176   -3.025176   -0.832038
 ---------------------------------------------------------------------
 Rotational constants (GHZ):     11.3052420      1.9044522      1.6446890
 Standard basis: 6-311G(d) (5D, 7F)
 There are    74 symmetry adapted cartesian basis functions of A'  symmetry.
 There are    28 symmetry adapted cartesian basis functions of A"  symmetry.
 There are    67 symmetry adapted basis functions of A'  symmetry.
 There are    27 symmetry adapted basis functions of A"  symmetry.
    94 basis functions,   165 primitive gaussians,   102 cartesian basis functions
    24 alpha electrons       23 beta electrons
       nuclear repulsion energy       142.4163733292 Hartrees.
 NAtoms=    7 NActive=    7 NUniq=    6 SFac= 1.36D+00 NAtFMM=   60 NAOKFM=F Big=F
 Integral buffers will be    131072 words long.
 Raffenetti 2 integral format.
 Two-electron integral symmetry is turned on.
 One-electron integrals computed using PRISM.
 NBasis=    94 RedAO= T EigKep=  1.33D-02  NBF=    67    27
 NBsUse=    94 1.00D-06 EigRej= -1.00D+00 NBFU=    67    27
 Initial guess from the checkpoint file:  "pescuh2o2.chk"
 B after Tr=     0.000000    0.000000    0.000000
         Rot=    0.999979    0.000000    0.000000    0.006478 Ang=   0.74 deg.
 Initial guess orbital symmetries:
 Alpha Orbitals:
       Occupied  (A') (A') (A') (A") (A') (A') (A') (A') (A') (A")
                 (A') (A') (A') (A') (A") (A') (A") (A') (A') (A')
                 (A') (A") (A') (A")
       Virtual   (A') (A') (A') (A') (A') (A') (A') (A') (A') (A')
                 (A') (A') (A') (A') (A') (A') (A') (A') (A') (A')
                 (A') (A') (A') (A') (A') (A') (A') (A') (A') (A')
                 (A') (A') (A') (A') (A') (A') (A') (A') (A') (A')
                 (A') (A') (A') (A') (A') (A') (A') (A') (A') (A")
                 (A") (A") (A") (A") (A") (A") (A") (A") (A") (A")
                 (A") (A") (A") (A") (A") (A") (A") (A") (A") (A")
 Beta  Orbitals:
       Occupied  (A') (A') (A') (A') (A") (A') (A') (A') (A') (A')
                 (A") (A') (A') (A') (A") (A') (A") (A') (A') (A")
                 (A') (A") (A')
       Virtual   (A') (A') (A') (A') (A') (A') (A') (A') (A') (A')
                 (A') (A') (A') (A') (A') (A') (A') (A') (A') (A')
                 (A') (A') (A') (A') (A') (A') (A') (A') (A') (A')
                 (A') (A') (A') (A') (A') (A') (A') (A') (A') (A')
                 (A') (A') (A') (A') (A') (A') (A') (A') (A') (A')
                 (A") (A") (A") (A") (A") (A") (A") (A") (A") (A")
                 (A") (A") (A") (A") (A") (A") (A") (A") (A") (A")
                 (A")
 Initial guess <Sx>= 0.0000 <Sy>= 0.0000 <Sz>= 0.5000 <S**2>= 0.7623 S= 0.5061
 ExpMin= 4.08D-02 ExpMax= 3.37D+05 ExpMxC= 1.14D+04 IAcc=2 IRadAn=         4 AccDes= 0.00D+00
 Harris functional with IExCor=  402 and IRadAn=       4 diagonalized for initial guess.
 HarFok:  IExCor=  402 AccDes= 0.00D+00 IRadAn=         4 IDoV= 1 UseB2=F ITyADJ=14
 ICtDFT=  3500011 ScaDFX=  1.000000  1.000000  1.000000  1.000000
 FoFCou: FMM=F IPFlag=           0 FMFlag=      100000 FMFlg1=           0
         NFxFlg=           0 DoJE=T BraDBF=F KetDBF=T FulRan=T
         wScrn=  0.000000 ICntrl=     500 IOpCl=  0 I1Cent=   200000004 NGrid=           0
         NMat0=    1 NMatS0=      1 NMatT0=    0 NMatD0=    1 NMtDS0=    0 NMtDT0=    0
 Petite list used in FoFCou.
 Keep R1 and R2 ints in memory in symmetry-blocked form, NReq=15545797.
 Requested convergence on RMS density matrix=1.00D-08 within  64 cycles.
 Requested convergence on MAX density matrix=1.00D-06.
 Requested convergence on             energy=1.00D-06.
 No special actions if energy rises.
 SCF Done:  E(UB3LYP) =  -1792.54421320     A.U. after   20 cycles
            NFock= 20  Conv=0.41D-08     -V/T= 2.0007
 <Sx>= 0.0000 <Sy>= 0.0000 <Sz>= 0.5000 <S**2>= 0.7610 S= 0.5055
 <L.S>= 0.000000000000E+00
 Annihilation of the first spin contaminant:
 S**2 before annihilation     0.7610,   after     0.7500
 QCSCF skips out because SCF is already converged.
 Calling FoFJK, ICntrl=      2127 FMM=F ISym2X=1 I1Cent= 0 IOpClX= 1 NMat=1 NMatS=1 NMatT=0.
 ***** Axes restored to original set *****
 -------------------------------------------------------------------
 Center     Atomic                   Forces (Hartrees/Bohr)
 Number     Number              X              Y              Z
 -------------------------------------------------------------------
      1       29           0.008674534    0.000000000   -0.006703463
      2        8           0.002098942    0.000000000   -0.008010248
      3        8          -0.002341674    0.000000000   -0.002605936
      4        1          -0.002638306    0.000000000    0.006814467
      5        1          -0.003546155    0.000000000   -0.001718986
      6        1          -0.001123671   -0.013240010    0.006112083
      7        1          -0.001123671    0.013240010    0.006112083
 -------------------------------------------------------------------
 Cartesian Forces:  Max     0.013240010 RMS     0.005764389

 GradGradGradGradGradGradGradGradGradGradGradGradGradGradGradGradGradGrad
 Berny optimization.
 Using GEDIIS/GDIIS optimizer.
 FormGI is forming the generalized inverse of G from B-inverse, IUseBI=4.
 Internal  Forces:  Max     0.015264164 RMS     0.005853371
 Search for a local minimum.
 Step number   3 out of a maximum of  100 on scan point     1 out of    26
 All quantities printed in internal units (Hartrees-Bohrs-Radians)
 Mixed Optimization -- RFO/linear search
 Update second derivatives using D2CorX and points    2    3
 The second derivative matrix:
                          R1        R2        R3        R4        R5
           R1           0.00858
           R2           0.00011   0.19132
           R3           0.00019   0.00077   0.57347
           R4           0.00019   0.00077  -0.00334   0.57347
           R5           0.00015   0.00072  -0.00238  -0.00238   0.57514
           R6           0.00011   0.00024  -0.00258  -0.00258  -0.00188
           A1           0.00000   0.00011   0.00020   0.00020   0.00016
           A2           0.00012  -0.00052  -0.00521  -0.00521  -0.00393
           A3           0.00012  -0.00052  -0.00522  -0.00522  -0.00394
           A4          -0.00024   0.00127   0.01083   0.01083   0.00820
           A5           0.00021   0.00098  -0.00330  -0.00330  -0.00235
           A6           0.00022   0.00079  -0.00423  -0.00423  -0.00306
           A7          -0.00044  -0.00178   0.00754   0.00754   0.00541
           D1           0.00000   0.00004   0.00007   0.00007   0.00005
           D2           0.00000  -0.00004  -0.00007  -0.00007  -0.00005
           D3           0.00000   0.00000   0.00000   0.00000   0.00000
           D4           0.00000   0.00000   0.00000   0.00000   0.00000
           D5          -0.00001  -0.00017  -0.00010  -0.00010  -0.00010
           D6           0.00000   0.00000   0.00000   0.00000   0.00000
                          R6        A1        A2        A3        A4
           R6           0.57491
           A1           0.00012   0.25000
           A2          -0.00362   0.00013   0.15370
           A3          -0.00363   0.00013  -0.00631   0.15369
           A4           0.00749  -0.00025   0.01274   0.01275   0.13425
           A5          -0.00263   0.00022  -0.00554  -0.00556   0.01137
           A6          -0.00325   0.00024  -0.00653  -0.00654   0.01338
           A7           0.00588  -0.00046   0.01207   0.01210  -0.02475
           D1           0.00004   0.00000   0.00004   0.00004  -0.00009
           D2          -0.00004   0.00000  -0.00004  -0.00004   0.00009
           D3           0.00000   0.00000   0.00000   0.00000   0.00000
           D4           0.00000   0.00000   0.00000   0.00000   0.00000
           D5          -0.00004  -0.00001   0.00011   0.00012  -0.00025
           D6           0.00000   0.00000   0.00000   0.00000   0.00000
                          A5        A6        A7        D1        D2
           A5           0.15669
           A6          -0.00429   0.15457
[...]
           A5         124.99819 125.54481 125.49140 125.70180 125.79359
           A6         124.83454 124.04586 124.83015 124.63905 124.60364
           A7         110.16727 110.40933 109.67826 109.65904 109.60271
           D1         111.02888 107.03248  79.97372  81.97131  83.69403
           D2        -111.02136-107.02658 -79.97448 -82.03857 -83.71111
           D3         179.98890 179.92906 179.72856 179.73798 179.66444
           D4          -0.00325  -0.03012  -0.09600  -0.12937  -0.23541
           D5         142.35158 149.61146-162.58358-166.13498-169.11274
           D6        -179.99314-179.96392-179.84707-179.88410-179.91249
                          21        22        23        24        25
     Eigenvalues --  **************************************************
           R1           1.88520   1.78520   1.68520   1.58520   1.48520
           R2           1.86885   1.87508   1.88046   1.88670   1.89411
           R3           0.97651   0.97821   0.97927   0.98244   0.98687
           R4           0.97650   0.97822   0.97924   0.98243   0.98690
           R5           0.97521   0.97524   0.97508   0.97477   0.97453
           R6           0.97288   0.97269   0.97514   0.97477   0.97452
           A1         110.00000 110.00000 110.00000 110.00000 110.00000
           A2         125.30103 125.60050 125.83345 126.29026 126.84633
           A3         125.29616 125.57968 125.86479 126.29445 126.84172
           A4         108.78354 108.39483 107.84138 106.87827 105.60960
           A5         125.85915 125.93942 125.34718 125.48920 125.57438
           A6         124.68766 124.79851 125.37921 125.49106 125.57058
           A7         109.45316 109.26204 108.86316 108.86367 108.84038
           D1          85.04671  85.83137  85.51127  85.23267  84.49170
           D2         -84.90679 -85.80697 -85.74325 -85.24240 -84.49928
           D3         179.66289 179.53703  85.84090  87.47174  89.22563
           D4          -0.27194  -0.38631 -85.97639 -87.47519 -89.22400
           D5        -171.35051-172.84001-172.56260-171.98828-170.86973
           D6        -179.94317-179.93332-172.95588-175.65371-178.66757
                          26
     Eigenvalues --  **********
           R1           1.38520
           R2           1.90428
           R3           0.99352
           R4           0.99350
           R5           0.97438
           R6           0.97439
           A1         110.00000
           A2         127.53342
           A3         127.53636
           A4         103.93304
           A5         125.58028
           A6         125.58437
           A7         108.80250
           D1          83.34745
           D2         -83.35692
           D3          91.16181
           D4         -91.15942
           D5        -169.17026
           D6         178.00596
                          Input orientation:                          
 ---------------------------------------------------------------------
 Center     Atomic      Atomic             Coordinates (Angstroms)
 Number     Number       Type             X           Y           Z
 ---------------------------------------------------------------------
      1         29           0       -0.093911    0.403241    1.272900
      2          8           0        0.119750   -0.000330    2.580671
      3          8           0        1.459473    0.064634    0.224755
      4          1           0        1.637782   -0.751075   -0.277477
      5          1           0        2.191338    0.690714    0.077023
      6          1           0        0.570814    0.508430    3.305091
      7          1           0        0.024011   -0.915614    2.955003
 ---------------------------------------------------------------------
                    Distance matrix (angstroms):
                    1          2          3          4          5
     1  Cu   0.000000
     2  O    1.385203   0.000000
     3  O    1.904276   2.710981   0.000000
     4  H    2.595164   3.322206   0.974377   0.000000
     5  H    2.595212   3.322239   0.974386   1.584566   0.000000
     6  H    2.140731   0.993519   3.236533   3.944562   3.616594
     7  H    2.140737   0.993496   3.236617   3.616663   3.944662
                    6          7
     6  H    0.000000
     7  H    1.565075   0.000000
 Stoichiometry    CuH4O2(2+,2)
 Framework group  C1[X(CuH4O2)]
 Deg. of freedom    15
 Full point group                 C1      NOp   1
 Largest Abelian subgroup         C1      NOp   1
 Largest concise Abelian subgroup C1      NOp   1
                         Standard orientation:                         
 ---------------------------------------------------------------------
 Center     Atomic      Atomic             Coordinates (Angstroms)
 Number     Number       Type             X           Y           Z
 ---------------------------------------------------------------------
      1         29           0       -0.171438    0.388057    0.000005
      2          8           0       -1.118570   -0.622748   -0.000008
      3          8           0        1.579668   -0.360204   -0.000005
      4          1           0        2.107315   -0.568188   -0.792307
      5          1           0        2.107359   -0.568264    0.792259
      6          1           0       -1.465825   -1.126845    0.782540
      7          1           0       -1.465942   -1.126751   -0.782535
 ---------------------------------------------------------------------
 Rotational constants (GHZ):     21.8216114      6.5180853      5.2811251

 **********************************************************************

            Population analysis using the SCF density.

 **********************************************************************

 Orbital symmetries:
 Alpha Orbitals:
       Occupied  (A) (A) (A) (A) (A) (A) (A) (A) (A) (A) (A) (A)
                 (A) (A) (A) (A) (A) (A) (A) (A) (A) (A) (A) (A)
       Virtual   (A) (A) (A) (A) (A) (A) (A) (A) (A) (A) (A) (A)
                 (A) (A) (A) (A) (A) (A) (A) (A) (A) (A) (A) (A)
                 (A) (A) (A) (A) (A) (A) (A) (A) (A) (A) (A) (A)
                 (A) (A) (A) (A) (A) (A) (A) (A) (A) (A) (A) (A)
                 (A) (A) (A) (A) (A) (A) (A) (A) (A) (A) (A) (A)
                 (A) (A) (A) (A) (A) (A) (A) (A) (A) (A)
 Beta  Orbitals:
       Occupied  (A) (A) (A) (A) (A) (A) (A) (A) (A) (A) (A) (A)
                 (A) (A) (A) (A) (A) (A) (A) (A) (A) (A) (A)
       Virtual   (A) (A) (A) (A) (A) (A) (A) (A) (A) (A) (A) (A)
                 (A) (A) (A) (A) (A) (A) (A) (A) (A) (A) (A) (A)
                 (A) (A) (A) (A) (A) (A) (A) (A) (A) (A) (A) (A)
                 (A) (A) (A) (A) (A) (A) (A) (A) (A) (A) (A) (A)
                 (A) (A) (A) (A) (A) (A) (A) (A) (A) (A) (A) (A)
                 (A) (A) (A) (A) (A) (A) (A) (A) (A) (A) (A)
 The electronic state is 2-A.
 Alpha  occ. eigenvalues -- -323.58219 -39.40118 -34.63491 -34.61937 -34.60262
 Alpha  occ. eigenvalues --  -19.69815 -19.60690  -4.94131  -3.48192  -3.43120
 Alpha  occ. eigenvalues --   -3.39794  -1.61121  -1.48993  -1.13859  -1.12277
 Alpha  occ. eigenvalues --   -1.01931  -1.00990  -0.96490  -0.88777  -0.88145
 Alpha  occ. eigenvalues --   -0.87005  -0.83639  -0.80903  -0.78518
 Alpha virt. eigenvalues --   -0.48851  -0.37981  -0.33327  -0.33150  -0.26532
 Alpha virt. eigenvalues --   -0.20142  -0.18682  -0.03530  -0.01746   0.01532
 Alpha virt. eigenvalues --    0.12787   0.20095   0.28862   0.32049   0.39709
 Alpha virt. eigenvalues --    0.41526   0.59046   0.68129   0.83449   0.89984
 Alpha virt. eigenvalues --    0.95741   0.97400   1.03876   1.14514   1.18339
 Alpha virt. eigenvalues --    1.48111   1.53779   1.60110   1.61785   1.64065
 Alpha virt. eigenvalues --    2.13852   2.17054   2.23040   2.27691   2.37932
 Alpha virt. eigenvalues --    2.44172   2.54984   2.65376   2.68153   2.94121
 Alpha virt. eigenvalues --    3.13856   3.38083   3.38786   3.39271   3.40086
 Alpha virt. eigenvalues --    3.57072   3.62881   3.71014   4.24701   4.30772
 Alpha virt. eigenvalues --    4.42845   4.47906   4.53450   5.30278   6.61560
 Alpha virt. eigenvalues --    6.61632   6.71145   6.75958   6.77560   8.87693
 Alpha virt. eigenvalues --    8.96826   9.51021  31.53882  42.26273  42.32098
 Alpha virt. eigenvalues --   42.71124  49.22272  49.24981 183.56479 978.83346
  Beta  occ. eigenvalues -- -323.58182 -39.38043 -34.60978 -34.59980 -34.59658
  Beta  occ. eigenvalues --  -19.69352 -19.60340  -4.89972  -3.41314  -3.38437
  Beta  occ. eigenvalues --   -3.38353  -1.59856  -1.48299  -1.11673  -1.10796
  Beta  occ. eigenvalues --   -1.00656  -0.98555  -0.93937  -0.86809  -0.86116
  Beta  occ. eigenvalues --   -0.84801  -0.81641  -0.78180
  Beta virt. eigenvalues --   -0.62372  -0.48019  -0.37673  -0.33139  -0.32906
  Beta virt. eigenvalues --   -0.26364  -0.19934  -0.18450  -0.03192  -0.01542
  Beta virt. eigenvalues --    0.01692   0.13991   0.21512   0.29190   0.32477
  Beta virt. eigenvalues --    0.40662   0.41763   0.59897   0.68540   0.84152
  Beta virt. eigenvalues --    0.91258   0.97135   1.00045   1.04685   1.15924
  Beta virt. eigenvalues --    1.19085   1.50574   1.54060   1.60432   1.62068
  Beta virt. eigenvalues --    1.64254   2.15481   2.18098   2.24261   2.28101
  Beta virt. eigenvalues --    2.38956   2.45408   2.56039   2.66161   2.68588
  Beta virt. eigenvalues --    2.94758   3.15901   3.38649   3.39519   3.41421
  Beta virt. eigenvalues --    3.42063   3.60011   3.65253   3.72567   4.25763
  Beta virt. eigenvalues --    4.31525   4.43393   4.49048   4.53748   5.32143
  Beta virt. eigenvalues --    6.63237   6.63327   6.72809   6.77602   6.85088
  Beta virt. eigenvalues --    8.88722   8.99788   9.54831  31.56636  42.27118
  Beta virt. eigenvalues --   42.34493  42.74464  49.22743  49.25348 183.57544
  Beta virt. eigenvalues --  978.83581
          Condensed to atoms (all electrons):
               1          2          3          4          5          6
     1  Cu  27.435422   0.002960   0.073831  -0.004020  -0.004020  -0.011200
     2  O    0.002960   8.420334   0.000397   0.001095   0.001094   0.229825
     3  O    0.073831   0.000397   8.342924   0.248074   0.248074   0.001878
     4  H   -0.004020   0.001095   0.248074   0.213780  -0.016388  -0.000042
     5  H   -0.004020   0.001094   0.248074  -0.016388   0.213774   0.000165
     6  H   -0.011200   0.229825   0.001878  -0.000042   0.000165   0.209465
     7  H   -0.011199   0.229827   0.001877   0.000165  -0.000042  -0.014933
               7
     1  Cu  -0.011199
     2  O    0.229827
     3  O    0.001877
     4  H    0.000165
     5  H   -0.000042
     6  H   -0.014933
     7  H    0.209460
          Atomic-Atomic Spin Densities.
               1          2          3          4          5          6
     1  Cu   0.791022  -0.077532  -0.030991   0.000903   0.000903   0.000729
     2  O   -0.077532   0.316532  -0.018352   0.000392   0.000392  -0.001188
     3  O   -0.030991  -0.018352   0.144283  -0.001239  -0.001239  -0.000005
     4  H    0.000903   0.000392  -0.001239   0.001826   0.000801  -0.000002
     5  H    0.000903   0.000392  -0.001239   0.000801   0.001827  -0.000011
     6  H    0.000729  -0.001188  -0.000005  -0.000002  -0.000011  -0.001678
     7  H    0.000729  -0.001188  -0.000005  -0.000011  -0.000002   0.000847
               7
     1  Cu   0.000729
     2  O   -0.001188
     3  O   -0.000005
     4  H   -0.000011
     5  H   -0.000002
     6  H    0.000847
     7  H   -0.001676
 Mulliken charges and spin densities:
               1          2
     1  Cu   1.518226   0.685764
     2  O   -0.885533   0.219055
     3  O   -0.917056   0.092453
     4  H    0.557336   0.002670
     5  H    0.557342   0.002671
     6  H    0.584842  -0.001307
     7  H    0.584844  -0.001305
 Sum of Mulliken charges =   2.00000   1.00000
 Mulliken charges and spin densities with hydrogens summed into heavy atoms:
               1          2
     1  Cu   1.518226   0.685764
     2  O    0.284152   0.216443
     3  O    0.197622   0.097793
 Electronic spatial extent (au):  <R**2>=            228.8643
 Charge=              2.0000 electrons
 Dipole moment (field-independent basis, Debye):
    X=             -0.0600    Y=             -2.2678    Z=              0.0000  Tot=              2.2686
 Quadrupole moment (field-independent basis, Debye-Ang):
   XX=             -0.7998   YY=            -13.3334   ZZ=            -14.2614
   XY=              1.9051   XZ=              0.0002   YZ=             -0.0003
 Traceless Quadrupole moment (field-independent basis, Debye-Ang):
   XX=              8.6650   YY=             -3.8685   ZZ=             -4.7965
   XY=              1.9051   XZ=              0.0002   YZ=             -0.0003
 Octapole moment (field-independent basis, Debye-Ang**2):
  XXX=             16.5225  YYY=              4.1553  ZZZ=             -0.0001  XYY=             -8.3011
  XXY=            -17.2763  XXZ=             -0.0008  XZZ=              0.4216  YZZ=             -2.5309
  YYZ=              0.0007  XYZ=             -0.0003
 Hexadecapole moment (field-independent basis, Debye-Ang**3):
 XXXX=            -69.0634 YYYY=            -34.2508 ZZZZ=            -11.9517 XXXY=             -7.9916
 XXXZ=              0.0021 YYYX=              8.4190 YYYZ=             -0.0011 ZZZX=             -0.0002
 ZZZY=             -0.0002 XXYY=            -15.7137 XXZZ=             -7.6635 YYZZ=             -4.3795
 XXYZ=             -0.0004 YYXZ=              0.0000 ZZXY=              1.3229
 N-N= 2.153648946008D+02 E-N=-4.691030624990D+03  KE= 1.792539573727D+03
                          Isotropic Fermi Contact Couplings
        Atom                 a.u.       MegaHertz       Gauss      10(-4) cm-1
     1  Cu(63)             0.23065     273.57709      97.61911      91.25549
     2  O(17)              0.11718     -71.03238     -25.34612     -23.69385
     3  O(17)              0.17520    -106.20578     -37.89686     -35.42644
     4  H(1)               0.00237      10.60019       3.78241       3.53584
     5  H(1)               0.00237      10.60391       3.78374       3.53709
     6  H(1)               0.00122       5.44213       1.94189       1.81530
     7  H(1)               0.00122       5.44929       1.94444       1.81769
 --------------------------------------------------------
       Center         ----  Spin Dipole Couplings  ----
                      3XX-RR        3YY-RR        3ZZ-RR
 --------------------------------------------------------
     1   Atom        1.409226      2.236979     -3.646205
     2   Atom        0.667103     -0.311454     -0.355649
     3   Atom        0.434276     -0.214479     -0.219797
     4   Atom        0.007476     -0.014780      0.007304
     5   Atom        0.007476     -0.014778      0.007302
     6   Atom       -0.005517     -0.004611      0.010128
     7   Atom       -0.005514     -0.004617      0.010131
 --------------------------------------------------------
                        XY            XZ            YZ
 --------------------------------------------------------
     1   Atom        1.373667      0.000074      0.000256
     2   Atom        0.060803     -0.000067     -0.000003
     3   Atom        0.039128     -0.000006      0.000000
     4   Atom       -0.007834     -0.015025      0.007787
     5   Atom       -0.007836      0.015025     -0.007789
     6   Atom        0.018935     -0.013022     -0.027806
     7   Atom        0.018938      0.013026      0.027804
 --------------------------------------------------------


 ---------------------------------------------------------------------------------
              Anisotropic Spin Dipole Couplings in Principal Axis System
 ---------------------------------------------------------------------------------

       Atom             a.u.   MegaHertz   Gauss  10(-4) cm-1        Axes

              Baa    -3.6462  -516.236  -184.206  -172.198  0.0000  0.0000  1.0000
     1 Cu(63) Bbb     0.3884    54.996    19.624    18.345  0.8026 -0.5965  0.0000
              Bcc     3.2578   461.240   164.582   153.853  0.5965  0.8026  0.0000
 
              Baa    -0.3556    25.735     9.183     8.584  0.0001  0.0000  1.0000
     2 O(17)  Bbb    -0.3152    22.809     8.139     7.608 -0.0618  0.9981  0.0000
              Bcc     0.6709   -48.543   -17.322   -16.192  0.9981  0.0618 -0.0001
 
              Baa    -0.2198    15.904     5.675     5.305  0.0000  0.0000  1.0000
     3 O(17)  Bbb    -0.2168    15.690     5.598     5.234 -0.0600  0.9982  0.0000
              Bcc     0.4366   -31.594   -11.274   -10.539  0.9982  0.0600  0.0000
 
              Baa    -0.0178    -9.504    -3.391    -3.170  0.1879  0.9643 -0.1866
     4 H(1)   Bbb    -0.0076    -4.074    -1.454    -1.359  0.7050 -0.0001  0.7092
              Bcc     0.0254    13.578     4.845     4.529  0.6838 -0.2648 -0.6799
 
              Baa    -0.0178    -9.504    -3.391    -3.170  0.1879  0.9643  0.1867
     5 H(1)   Bbb    -0.0076    -4.074    -1.454    -1.359 -0.7050  0.0001  0.7092
              Bcc     0.0254    13.578     4.845     4.529  0.6838 -0.2648  0.6799
 
              Baa    -0.0292   -15.565    -5.554    -5.192 -0.4044  0.8044  0.4352
     6 H(1)   Bbb    -0.0126    -6.734    -2.403    -2.246  0.8101  0.0941  0.5787
              Bcc     0.0418    22.298     7.957     7.438 -0.4246 -0.5865  0.6897
 
              Baa    -0.0292   -15.565    -5.554    -5.192 -0.4044  0.8045 -0.4350
     7 H(1)   Bbb    -0.0126    -6.734    -2.403    -2.246  0.8100  0.0942 -0.5788
              Bcc     0.0418    22.299     7.957     7.438  0.4247  0.5865  0.6897
 

 ---------------------------------------------------------------------------------

 B after Tr=     0.654310   -1.089754   -1.118587
         Rot=    0.981017    0.108627    0.052431   -0.151843 Ang=  22.36 deg.
 Atom   5 needs variable   3=   0.9743858770 but is    0.9743772411
 Input z-matrix variables are not compatible with final structure.
 1\1\GINC-MILLENNIUM-FALCON\Scan\UB3LYP\6-311G(d)\Cu1H4O2(2+,2)\JAKE\17
 -Jun-2016\0\\#opt=(modredundant,maxcycles=350) B3LYP/6-311G* scf=xqc\\
 cu2(h20)2\\2,2\Cu,-0.3590427438,0.7403042256,1.1996125875\O,-0.1453813
 573,0.3367329854,2.5073841338\O,1.1943415507,0.4016967996,0.1514677456
 \H,1.3726510609,-0.414011455,-0.3507640435\H,1.9262070425,1.0277767815
 ,0.0037362471\H,0.305682833,0.845493441,3.2318042977\H,-0.241119835,-0
 .5785513363,2.8817155352\\Version=EM64L-G09RevD.01\State=2-A\HF=-1792.
 5464658,-1792.5457652,-1792.5451359,-1792.5446049,-1792.5441725,-1792.
 5439427,-1792.5439276,-1792.5441913,-1792.544801,-1792.54581,-1792.547
 3089,-1792.5493857,-1792.5521077,-1792.5555382,-1792.5597274,-1792.564
 7246,-1792.5706375,-1792.5815403,-1792.5876014,-1792.5924624,-1792.594
 6753,-1792.5922296,-1792.5844916,-1792.5603248,-1792.5137589,-1792.431
 5244\S2=0.762051,0.762116,0.762229,0.762393,0.762554,0.762805,0.763097
 ,0.763414,0.763704,0.76389,0.763822,0.76344,0.762435,0.76079,0.758442,
 0.75558,0.751895,0.752669,0.751936,0.751502,0.751274,0.751172,0.751374
 ,0.751422,0.751474,0.751509\S2-1=0.,0.,0.,0.,0.,0.,0.,0.,0.,0.,0.,0.,0
 .,0.,0.,0.,0.,0.,0.,0.,0.,0.,0.,0.,0.,0.\S2A=0.750019,0.750019,0.75001
 8,0.750018,0.750018,0.750018,0.750017,0.750017,0.750017,0.750016,0.750
 016,0.750015,0.750013,0.750011,0.750008,0.750006,0.750002,0.750002,0.7
 50002,0.750001,0.750001,0.750001,0.750001,0.750001,0.750001,0.750002\R
 MSD=6.020e-09,8.797e-09,8.732e-09,8.148e-09,4.508e-09,2.806e-09,7.502e
 -10,1.167e-09,1.194e-09,1.750e-09,3.440e-09,2.377e-09,2.279e-09,7.578e
 -09,1.795e-09,8.551e-09,2.148e-09,1.685e-09,5.365e-09,1.963e-09,7.858e
 -09,6.255e-09,5.838e-09,1.523e-09,1.629e-09,3.826e-09\PG=C01 [X(Cu1H4O
 2)]\\@


 THE MEEK SHALL INHERIT THE EARTH.
 (THE REST OF US WILL ESCAPE TO THE STARS)
 Job cpu time:       0 days  0 hours 39 minutes 37.6 seconds.
 File lengths (MBytes):  RWF=     10 Int=      0 D2E=      0 Chk=      3 Scr=      1
 Normal termination of Gaussian 09 at Fri Jun 17 12:14:17 2016.
