 Entering Gaussian System, Link 0=g09
 Input=2coord_b3lyp_A_F_140.inp
 Output=2coord_b3lyp_A_F_140.log
 Initial command:
 /usr/local/g09/l1.exe "./Gau-8463.inp" -scrdir="./"
 Entering Link 1 = /usr/local/g09/l1.exe PID=      8465.
  
 Copyright (c) 1988,1990,1992,1993,1995,1998,2003,2009,2013,
            Gaussian, Inc.  All Rights Reserved.
  
 This is part of the Gaussian(R) 09 program.  It is based on
 the Gaussian(R) 03 system (copyright 2003, Gaussian, Inc.),
 the Gaussian(R) 98 system (copyright 1998, Gaussian, Inc.),
 the Gaussian(R) 94 system (copyright 1995, Gaussian, Inc.),
 the Gaussian 92(TM) system (copyright 1992, Gaussian, Inc.),
 the Gaussian 90(TM) system (copyright 1990, Gaussian, Inc.),
 the Gaussian 88(TM) system (copyright 1988, Gaussian, Inc.),
 the Gaussian 86(TM) system (copyright 1986, Carnegie Mellon
 University), and the Gaussian 82(TM) system (copyright 1983,
 Carnegie Mellon University). Gaussian is a federally registered
 trademark of Gaussian, Inc.
  
 This software contains proprietary and confidential information,
 including trade secrets, belonging to Gaussian, Inc.
  
 This software is provided under written license and may be
 used, copied, transmitted, or stored only in accord with that
 written license.
  
 The following legend is applicable only to US Government
 contracts under FAR:
  
                    RESTRICTED RIGHTS LEGEND
  
 Use, reproduction and disclosure by the US Government is
 subject to restrictions as set forth in subparagraphs (a)
 and (c) of the Commercial Computer Software - Restricted
 Rights clause in FAR 52.227-19.
  
 Gaussian, Inc.
 340 Quinnipiac St., Bldg. 40, Wallingford CT 06492
  
  
 ---------------------------------------------------------------
 Warning -- This program may not be used in any manner that
 competes with the business of Gaussian, Inc. or will provide
 assistance to any competitor of Gaussian, Inc.  The licensee
 of this program is prohibited from giving any competitor of
 Gaussian, Inc. access to this program.  By using this program,
 the user acknowledges that Gaussian, Inc. is engaged in the
 business of creating and licensing software in the field of
 computational chemistry and represents and warrants to the
 licensee that it is not a competitor of Gaussian, Inc. and that
 it will not use this program in any manner prohibited above.
 ---------------------------------------------------------------
  

 Cite this work as:
 Gaussian 09, Revision D.01,
 M. J. Frisch, G. W. Trucks, H. B. Schlegel, G. E. Scuseria, 
 M. A. Robb, J. R. Cheeseman, G. Scalmani, V. Barone, B. Mennucci, 
 G. A. Petersson, H. Nakatsuji, M. Caricato, X. Li, H. P. Hratchian, 
 A. F. Izmaylov, J. Bloino, G. Zheng, J. L. Sonnenberg, M. Hada, 
 M. Ehara, K. Toyota, R. Fukuda, J. Hasegawa, M. Ishida, T. Nakajima, 
 Y. Honda, O. Kitao, H. Nakai, T. Vreven, J. A. Montgomery, Jr., 
 J. E. Peralta, F. Ogliaro, M. Bearpark, J. J. Heyd, E. Brothers, 
 K. N. Kudin, V. N. Staroverov, T. Keith, R. Kobayashi, J. Normand, 
 K. Raghavachari, A. Rendell, J. C. Burant, S. S. Iyengar, J. Tomasi, 
 M. Cossi, N. Rega, J. M. Millam, M. Klene, J. E. Knox, J. B. Cross, 
 V. Bakken, C. Adamo, J. Jaramillo, R. Gomperts, R. E. Stratmann, 
 O. Yazyev, A. J. Austin, R. Cammi, C. Pomelli, J. W. Ochterski, 
 R. L. Martin, K. Morokuma, V. G. Zakrzewski, G. A. Voth, 
 P. Salvador, J. J. Dannenberg, S. Dapprich, A. D. Daniels, 
 O. Farkas, J. B. Foresman, J. V. Ortiz, J. Cioslowski, 
 and D. J. Fox, Gaussian, Inc., Wallingford CT, 2013.
 
 ******************************************
 Gaussian 09:  EM64L-G09RevD.01 24-Apr-2013
                17-Jun-2016 
 ******************************************
 %mem=2GB
 %nprocshared=1
 Will use up to    1 processors via shared memory.
 %chk=pescuh2o2.chk
 -------------------------------------------------------
 #opt=(modredundant,maxcycles=350) B3LYP/6-311G* scf=xqc
 -------------------------------------------------------
 1/6=350,14=-1,18=120,19=15,26=3,38=1/1,3;
 2/9=110,12=2,17=6,18=5,40=1/2;
 3/5=4,6=6,7=1,11=2,16=1,25=1,30=1,71=1,74=-5/1,2,3;
 4//1;
 5/5=2,8=3,13=1,38=5/2,8;
 6/7=2,8=2,9=2,10=2,28=1/1;
 7//1,2,3,16;
 1/6=350,14=-1,18=20,19=15,26=3/3(2);
 2/9=110/2;
 99//99;
 2/9=110/2;
 3/5=4,6=6,7=1,11=2,16=1,25=1,30=1,71=1,74=-5/1,2,3;
 4/5=5,16=3,69=1/1;
 5/5=2,8=3,13=1,38=5/2,8;
 7//1,2,3,16;
 1/6=350,14=-1,18=20,19=15,26=3/3(-5);
 2/9=110/2;
 6/7=2,8=2,9=2,10=2,19=2,28=1/1;
 99/9=1/99;
 ---------
 cu2(h20)2
 ---------
 Symbolic Z-matrix:
 Charge =  2 Multiplicity = 2
 Cu
 O                    1    A
 O                    1    B        2    H
 H                    3    C        1    D        2    E        0
 H                    3    C        1    D        2    F        0
 H                    2    C        1    D        3    G        0
 H                    2    C        1    D        6    E        0
       Variables:
  A                     3.8852                   
  B                     1.88506                  
  C                     0.95                     
  D                   109.471                    
  E                   180.                       
  F                     0.                       
  G                    90.                       
  H                   140.                       
 
     4 tetrahedral angles replaced.
 Add virtual bond connecting atoms O2         and Cu1        Dist= 7.34D+00.
 The following ModRedundant input section has been read:
 A       2       1       3 F                                                   
 B       1       2 S  25 -0.100                                                
 

 GradGradGradGradGradGradGradGradGradGradGradGradGradGradGradGradGradGrad
 Berny optimization.
 Initialization pass.
                           ----------------------------
                           !    Initial Parameters    !
                           ! (Angstroms and Degrees)  !
 --------------------------                            --------------------------
 ! Name  Definition              Value          Derivative Info.                !
 --------------------------------------------------------------------------------
 ! R1    R(1,2)                  3.8852         Scan                            !
 ! R2    R(1,3)                  1.8851         estimate D2E/DX2                !
 ! R3    R(2,6)                  0.95           estimate D2E/DX2                !
 ! R4    R(2,7)                  0.95           estimate D2E/DX2                !
 ! R5    R(3,4)                  0.95           estimate D2E/DX2                !
 ! R6    R(3,5)                  0.95           estimate D2E/DX2                !
 ! A1    A(2,1,3)              140.0            Frozen                          !
 ! A2    A(1,2,6)              109.4712         estimate D2E/DX2                !
 ! A3    A(1,2,7)              109.4712         estimate D2E/DX2                !
 ! A4    A(6,2,7)              141.0576         estimate D2E/DX2                !
 ! A5    A(1,3,4)              109.4712         estimate D2E/DX2                !
 ! A6    A(1,3,5)              109.4712         estimate D2E/DX2                !
 ! A7    A(4,3,5)              141.0576         estimate D2E/DX2                !
 ! D1    D(3,1,2,6)             90.0            estimate D2E/DX2                !
 ! D2    D(3,1,2,7)            -90.0            estimate D2E/DX2                !
 ! D3    D(2,1,3,4)            180.0            estimate D2E/DX2                !
 ! D4    D(2,1,3,5)              0.0            estimate D2E/DX2                !
 ! D5    D(1,2,6,7)            180.0            estimate D2E/DX2                !
 ! D6    D(1,3,4,5)            180.0            estimate D2E/DX2                !
 --------------------------------------------------------------------------------
 Trust Radius=3.00D-01 FncErr=1.00D-07 GrdErr=1.00D-06
 Number of optimizations in scan=  26
 Number of steps in this run=    100 maximum allowed number of steps=    100.
 GradGradGradGradGradGradGradGradGradGradGradGradGradGradGradGradGradGrad

                          Input orientation:                          
 ---------------------------------------------------------------------
 Center     Atomic      Atomic             Coordinates (Angstroms)
 Number     Number       Type             X           Y           Z
 ---------------------------------------------------------------------
      1         29           0        0.000000    0.000000    0.000000
      2          8           0        0.000000    0.000000    3.885203
      3          8           0        1.211694    0.000000   -1.444041
      4          1           0        0.729121    0.000000   -2.262346
      5          1           0        2.101365    0.000000   -1.110897
      6          1           0        0.000000    0.895669    4.201870
      7          1           0        0.000000   -0.895669    4.201870
 ---------------------------------------------------------------------
                    Distance matrix (angstroms):
                    1          2          3          4          5
     1  Cu   0.000000
     2  O    3.885203   0.000000
     3  O    1.885061   5.465257   0.000000
     4  H    2.376936   6.190636   0.950000   0.000000
     5  H    2.376936   5.420032   0.950000   1.791337   0.000000
     6  H    4.296269   0.950000   5.843520   6.566576   5.783031
     7  H    4.296269   0.950000   5.843520   6.566576   5.783031
                    6          7
     6  H    0.000000
     7  H    1.791337   0.000000
 Stoichiometry    CuH4O2(2+,2)
 Framework group  CS[SG(CuH2O2),X(H2)]
 Deg. of freedom    10
 Full point group                 CS      NOp   2
 Largest Abelian subgroup         CS      NOp   2
 Largest concise Abelian subgroup CS      NOp   2
                         Standard orientation:                         
 ---------------------------------------------------------------------
 Center     Atomic      Atomic             Coordinates (Angstroms)
 Number     Number       Type             X           Y           Z
 ---------------------------------------------------------------------
      1         29           0        0.000000    0.562627    0.000000
      2          8           0       -1.764986   -2.898533    0.000000
      3          8           0        1.735450    1.298607    0.000000
      4          1           0        1.677290    2.246825    0.000000
      5          1           0        2.376678    0.597660    0.000000
      6          1           0       -1.908843   -3.180637    0.895669
      7          1           0       -1.908843   -3.180637   -0.895669
 ---------------------------------------------------------------------
 Rotational constants (GHZ):     26.8606598      1.6569375      1.5764092
 Standard basis: 6-311G(d) (5D, 7F)
 There are    74 symmetry adapted cartesian basis functions of A'  symmetry.
 There are    28 symmetry adapted cartesian basis functions of A"  symmetry.
 There are    67 symmetry adapted basis functions of A'  symmetry.
 There are    27 symmetry adapted basis functions of A"  symmetry.
    94 basis functions,   165 primitive gaussians,   102 cartesian basis functions
    24 alpha electrons       23 beta electrons
       nuclear repulsion energy       144.6536171194 Hartrees.
 NAtoms=    7 NActive=    7 NUniq=    6 SFac= 1.36D+00 NAtFMM=   60 NAOKFM=F Big=F
 Integral buffers will be    131072 words long.
 Raffenetti 2 integral format.
 Two-electron integral symmetry is turned on.
 One-electron integrals computed using PRISM.
 NBasis=    94 RedAO= T EigKep=  1.33D-02  NBF=    67    27
 NBsUse=    94 1.00D-06 EigRej= -1.00D+00 NBFU=    67    27
 ExpMin= 4.08D-02 ExpMax= 3.37D+05 ExpMxC= 1.14D+04 IAcc=2 IRadAn=         4 AccDes= 0.00D+00
 Harris functional with IExCor=  402 and IRadAn=       4 diagonalized for initial guess.
 HarFok:  IExCor=  402 AccDes= 0.00D+00 IRadAn=         4 IDoV= 1 UseB2=F ITyADJ=14
 ICtDFT=  3500011 ScaDFX=  1.000000  1.000000  1.000000  1.000000
 FoFCou: FMM=F IPFlag=           0 FMFlag=      100000 FMFlg1=           0
         NFxFlg=           0 DoJE=T BraDBF=F KetDBF=T FulRan=T
         wScrn=  0.000000 ICntrl=     500 IOpCl=  0 I1Cent=   200000004 NGrid=           0
         NMat0=    1 NMatS0=      1 NMatT0=    0 NMatD0=    1 NMtDS0=    0 NMtDT0=    0
 Petite list used in FoFCou.
 Initial guess orbital symmetries:
 Alpha Orbitals:
       Occupied  (A') (A') (A') (A') (A") (A') (A') (A') (A') (A')
                 (A") (A') (A') (A') (A") (A') (A") (A') (A') (A')
                 (A') (A') (A") (A")
       Virtual   (A') (A') (A') (A') (A") (A') (A') (A') (A') (A")
                 (A") (A') (A') (A') (A') (A") (A') (A') (A") (A')
                 (A') (A") (A') (A") (A') (A') (A') (A') (A') (A")
                 (A") (A") (A") (A') (A') (A') (A') (A") (A') (A')
                 (A') (A') (A") (A') (A") (A') (A") (A') (A") (A')
                 (A') (A') (A") (A') (A") (A') (A") (A') (A') (A")
                 (A') (A') (A') (A") (A') (A') (A') (A') (A') (A')
 Beta  Orbitals:
       Occupied  (A') (A') (A') (A') (A") (A') (A') (A') (A') (A')
                 (A") (A') (A') (A') (A") (A') (A") (A') (A') (A')
                 (A') (A') (A")
       Virtual   (A") (A') (A') (A') (A') (A") (A') (A') (A') (A')
                 (A") (A") (A') (A') (A') (A') (A") (A') (A') (A")
                 (A') (A') (A") (A') (A") (A') (A') (A') (A') (A')
                 (A") (A") (A") (A") (A') (A') (A') (A') (A") (A')
                 (A') (A') (A') (A") (A') (A") (A') (A") (A') (A")
                 (A') (A') (A') (A") (A') (A") (A') (A") (A') (A')
                 (A") (A') (A') (A') (A") (A') (A') (A') (A') (A')
                 (A')
 The electronic state of the initial guess is 2-A".
 Initial guess <Sx>= 0.0000 <Sy>= 0.0000 <Sz>= 0.5000 <S**2>= 0.7500 S= 0.5000
 Keep R1 and R2 ints in memory in symmetry-blocked form, NReq=15545797.
 Requested convergence on RMS density matrix=1.00D-08 within  64 cycles.
 Requested convergence on MAX density matrix=1.00D-06.
 Requested convergence on             energy=1.00D-06.
 No special actions if energy rises.
 EnCoef did   100 forward-backward iterations
 EnCoef did   100 forward-backward iterations
 EnCoef did   100 forward-backward iterations
 EnCoef did   100 forward-backward iterations
 EnCoef did     9 forward-backward iterations
 EnCoef did    53 forward-backward iterations
 EnCoef did   100 forward-backward iterations
 EnCoef did   100 forward-backward iterations
 EnCoef did   100 forward-backward iterations
 EnCoef did   100 forward-backward iterations
 EnCoef did   100 forward-backward iterations
 Rare condition: small coef for last iteration: -0.630D-15
 EnCoef did   100 forward-backward iterations
 Rare condition: small coef for last iteration:  0.696D-16
 EnCoef did   100 forward-backward iterations
 EnCoef did   100 forward-backward iterations
 EnCoef did   100 forward-backward iterations
 EnCoef did   100 forward-backward iterations
 EnCoef did   100 forward-backward iterations
 EnCoef did   100 forward-backward iterations
 EnCoef did   100 forward-backward iterations
 EnCoef did   100 forward-backward iterations
 EnCoef did   100 forward-backward iterations
 EnCoef did   100 forward-backward iterations
 EnCoef did   100 forward-backward iterations
 EnCoef did   100 forward-backward iterations
 Rare condition: small coef for last iteration:  0.987D-15
 EnCoef did   100 forward-backward iterations
 Rare condition: small coef for last iteration:  0.000D+00
 Rare condition: small coef for last iteration:  0.000D+00
 EnCoef did     1 forward-backward iterations
 EnCoef did   100 forward-backward iterations
 EnCoef did   100 forward-backward iterations
 EnCoef did   100 forward-backward iterations
 Rare condition: small coef for last iteration:  0.000D+00
 Rare condition: small coef for last iteration:  0.000D+00
 Rare condition: small coef for last iteration:  0.000D+00
 >>>>>>>>>> Convergence criterion not met.
 SCF Done:  E(UB3LYP) =  -1792.35189862     A.U. after   65 cycles
            NFock= 64  Conv=0.58D-02     -V/T= 1.9988
 <Sx>= 0.0000 <Sy>= 0.0000 <Sz>= 0.5000 <S**2>= 0.7516 S= 0.5008
 <L.S>= 0.000000000000E+00
 Annihilation of the first spin contaminant:
 S**2 before annihilation     0.7516,   after     0.7500
 Keep R1 and R2 ints in memory in symmetry-blocked form, NReq=15602405.
 Gradient too large for Newton-Raphson -- use scaled steepest descent instead.
  Beta Gap=    -0.399 HL deriv= 9.90D-18 Rot set to   7.88D-01
     Minimum is close to point  2 DX=  1.08D-02 DF= -6.98D-05 DXR=  3.48D-02 DFR=  1.21D-03 which will be used.
 Gradient too large for Newton-Raphson -- use scaled steepest descent instead.
     Accept linear search using points  2 and  3.
 Gradient too large for Newton-Raphson -- use scaled steepest descent instead.
 Gradient too large for Newton-Raphson -- use scaled steepest descent instead.
 Gradient too large for Newton-Raphson -- use scaled steepest descent instead.
     Accept linear search using points  1 and  2.
 Gradient too large for Newton-Raphson -- use scaled steepest descent instead.
     Accept linear search using points  3 and  4.
 Gradient too large for Newton-Raphson -- use scaled steepest descent instead.
 Gradient too large for Newton-Raphson -- use scaled steepest descent instead.
     Accept linear search using points  3 and  4.
 Gradient too large for Newton-Raphson -- use scaled steepest descent instead.
     Minimum is close to point  3 DX=  6.97D-03 DF= -2.00D-06 DXR=  2.27D-02 DFR=  5.16D-04 which will be used.
 Gradient too large for Newton-Raphson -- use scaled steepest descent instead.
 Gradient too large for Newton-Raphson -- use scaled steepest descent instead.
     Minimum is close to point  3 DX= -1.17D-02 DF= -6.15D-06 DXR=  4.07D-02 DFR=  1.66D-03 which will be used.
 Gradient too large for Newton-Raphson -- use scaled steepest descent instead.
 Gradient too large for Newton-Raphson -- use scaled steepest descent instead.
     Accept linear search using points  1 and  2.
 Gradient too large for Newton-Raphson -- use scaled steepest descent instead.
 Gradient too large for Newton-Raphson -- use scaled steepest descent instead.
     Accept linear search using points  1 and  2.
 Gradient too large for Newton-Raphson -- use scaled steepest descent instead.
 Gradient too large for Newton-Raphson -- use scaled steepest descent instead.
     Accept linear search using points  1 and  2.
 LinEq1:  Iter=  0 NonCon=     1 RMS=2.39D-04 Max=1.17D-02 NDo=     1
 AX will form     1 AO Fock derivatives at one time.
 LinEq1:  Iter=  1 NonCon=     1 RMS=1.65D-03 Max=4.91D-02 NDo=     1
 LinEq1:  Iter=  2 NonCon=     1 RMS=6.47D-04 Max=2.82D-02 NDo=     1
 LinEq1:  Iter=  3 NonCon=     1 RMS=6.42D-04 Max=1.97D-02 NDo=     1
 LinEq1:  Iter=  4 NonCon=     1 RMS=4.74D-04 Max=8.55D-03 NDo=     1
 LinEq1:  Iter=  5 NonCon=     1 RMS=1.82D-04 Max=3.69D-03 NDo=     1
 LinEq1:  Iter=  6 NonCon=     1 RMS=1.11D-04 Max=2.05D-03 NDo=     1
 LinEq1:  Iter=  7 NonCon=     1 RMS=1.04D-04 Max=3.25D-03 NDo=     1
 LinEq1:  Iter=  8 NonCon=     1 RMS=3.76D-05 Max=6.11D-04 NDo=     1
 LinEq1:  Iter=  9 NonCon=     1 RMS=1.05D-05 Max=2.54D-04 NDo=     1
 LinEq1:  Iter= 10 NonCon=     1 RMS=2.44D-06 Max=5.39D-05 NDo=     1
 LinEq1:  Iter= 11 NonCon=     1 RMS=9.31D-07 Max=2.87D-05 NDo=     1
 LinEq1:  Iter= 12 NonCon=     1 RMS=2.69D-07 Max=7.20D-06 NDo=     1
 LinEq1:  Iter= 13 NonCon=     1 RMS=7.73D-08 Max=1.50D-06 NDo=     1
 LinEq1:  Iter= 14 NonCon=     1 RMS=2.71D-08 Max=6.73D-07 NDo=     1
 LinEq1:  Iter= 15 NonCon=     1 RMS=1.15D-08 Max=2.78D-07 NDo=     1
 LinEq1:  Iter= 16 NonCon=     0 RMS=2.49D-09 Max=3.85D-08 NDo=     1
 Linear equations converged to 5.756D-09 5.756D-08 after    16 iterations.
     Accept linear search using points  1 and  2.
     Minimum is close to point  2 DX= -1.06D-02 DF= -3.10D-09 DXR=  1.07D-02 DFR=  1.15D-04 which will be used.
 LinEq1:  Iter=  0 NonCon=     1 RMS=5.55D-05 Max=3.18D-03 NDo=     1
 LinEq1:  Iter=  1 NonCon=     1 RMS=3.92D-05 Max=1.90D-03 NDo=     1
 LinEq1:  Iter=  2 NonCon=     1 RMS=1.45D-05 Max=3.80D-04 NDo=     1
 LinEq1:  Iter=  3 NonCon=     1 RMS=1.84D-05 Max=6.27D-04 NDo=     1
 LinEq1:  Iter=  4 NonCon=     1 RMS=7.65D-06 Max=1.55D-04 NDo=     1
 LinEq1:  Iter=  5 NonCon=     1 RMS=5.25D-06 Max=1.45D-04 NDo=     1
 LinEq1:  Iter=  6 NonCon=     1 RMS=3.68D-06 Max=8.79D-05 NDo=     1
 LinEq1:  Iter=  7 NonCon=     1 RMS=2.23D-06 Max=4.83D-05 NDo=     1
 LinEq1:  Iter=  8 NonCon=     1 RMS=5.20D-07 Max=1.55D-05 NDo=     1
 LinEq1:  Iter=  9 NonCon=     1 RMS=1.87D-07 Max=5.86D-06 NDo=     1
 LinEq1:  Iter= 10 NonCon=     1 RMS=6.38D-08 Max=1.95D-06 NDo=     1
 LinEq1:  Iter= 11 NonCon=     1 RMS=1.81D-08 Max=3.48D-07 NDo=     1
 LinEq1:  Iter= 12 NonCon=     1 RMS=4.42D-09 Max=8.61D-08 NDo=     1
 LinEq1:  Iter= 13 NonCon=     1 RMS=1.61D-09 Max=5.13D-08 NDo=     1
 LinEq1:  Iter= 14 NonCon=     0 RMS=6.52D-10 Max=1.85D-08 NDo=     1
 Linear equations converged to 2.118D-09 2.118D-08 after    14 iterations.
     Minimum is close to point  2 DX=  1.75D-02 DF= -2.50D-12 DXR=  1.72D-02 DFR=  2.93D-04 which will be used.
 LinEq1:  Iter=  0 NonCon=     1 RMS=1.35D-07 Max=7.71D-06 NDo=     1
 LinEq1:  Iter=  1 NonCon=     1 RMS=3.19D-07 Max=1.55D-05 NDo=     1
 LinEq1:  Iter=  2 NonCon=     1 RMS=1.10D-07 Max=1.75D-06 NDo=     1
 LinEq1:  Iter=  3 NonCon=     1 RMS=1.22D-07 Max=5.05D-06 NDo=     1
 LinEq1:  Iter=  4 NonCon=     1 RMS=8.14D-08 Max=2.09D-06 NDo=     1
 LinEq1:  Iter=  5 NonCon=     1 RMS=6.35D-08 Max=1.43D-06 NDo=     1
 LinEq1:  Iter=  6 NonCon=     1 RMS=5.49D-08 Max=1.58D-06 NDo=     1
 LinEq1:  Iter=  7 NonCon=     1 RMS=1.60D-08 Max=3.15D-07 NDo=     1
 LinEq1:  Iter=  8 NonCon=     1 RMS=4.11D-09 Max=6.35D-08 NDo=     1
 LinEq1:  Iter=  9 NonCon=     1 RMS=1.17D-09 Max=2.50D-08 NDo=     1
 LinEq1:  Iter= 10 NonCon=     1 RMS=3.84D-10 Max=9.82D-09 NDo=     1
 LinEq1:  Iter= 11 NonCon=     1 RMS=1.45D-10 Max=4.28D-09 NDo=     1
 LinEq1:  Iter= 12 NonCon=     1 RMS=7.38D-11 Max=1.70D-09 NDo=     1
 LinEq1:  Iter= 13 NonCon=     1 RMS=1.85D-11 Max=3.58D-10 NDo=     1
 LinEq1:  Iter= 14 NonCon=     1 RMS=4.35D-12 Max=1.51D-10 NDo=     1
 LinEq1:  Iter= 15 NonCon=     0 RMS=1.38D-12 Max=4.28D-11 NDo=     1
 Linear equations converged to 7.119D-12 7.119D-11 after    15 iterations.
 Incorrect curvature in search direction -- initial direction reversed.
     Minimum is close to point 15 DX=  0.00D+00 DF=  0.00D+00 DXR=  0.00D+00 DFR=  0.00D+00 which will be used.
 LinEq1:  Iter=  0 NonCon=     1 RMS=1.70D-03 Max=9.71D-02 NDo=     1
 LinEq1:  Iter=  1 NonCon=     1 RMS=2.48D-03 Max=1.20D-01 NDo=     1
 LinEq1:  Iter=  2 NonCon=     1 RMS=8.80D-04 Max=1.44D-02 NDo=     1
 LinEq1:  Iter=  3 NonCon=     1 RMS=8.70D-04 Max=3.15D-02 NDo=     1
 LinEq1:  Iter=  4 NonCon=     1 RMS=5.91D-04 Max=1.44D-02 NDo=     1
 LinEq1:  Iter=  5 NonCon=     1 RMS=5.17D-04 Max=1.08D-02 NDo=     1
 LinEq1:  Iter=  6 NonCon=     1 RMS=4.06D-04 Max=1.19D-02 NDo=     1
 LinEq1:  Iter=  7 NonCon=     1 RMS=1.21D-04 Max=2.51D-03 NDo=     1
 LinEq1:  Iter=  8 NonCon=     1 RMS=3.08D-05 Max=3.76D-04 NDo=     1
 LinEq1:  Iter=  9 NonCon=     1 RMS=7.80D-06 Max=1.33D-04 NDo=     1
 LinEq1:  Iter= 10 NonCon=     1 RMS=2.50D-06 Max=6.34D-05 NDo=     1
 LinEq1:  Iter= 11 NonCon=     1 RMS=8.54D-07 Max=2.55D-05 NDo=     1
 LinEq1:  Iter= 12 NonCon=     1 RMS=4.14D-07 Max=9.73D-06 NDo=     1
 LinEq1:  Iter= 13 NonCon=     1 RMS=1.03D-07 Max=2.43D-06 NDo=     1
 LinEq1:  Iter= 14 NonCon=     1 RMS=2.72D-08 Max=6.18D-07 NDo=     1
 LinEq1:  Iter= 15 NonCon=     1 RMS=1.02D-08 Max=2.42D-07 NDo=     1
 LinEq1:  Iter= 16 NonCon=     1 RMS=3.69D-09 Max=6.41D-08 NDo=     1
 LinEq1:  Iter= 17 NonCon=     0 RMS=9.32D-10 Max=2.00D-08 NDo=     1
 Linear equations converged to 5.756D-09 5.756D-08 after    17 iterations.
 Incorrect curvature in search direction -- initial direction reversed.
     Minimum is close to point  2 DX=  3.23D-02 DF= -5.88D-08 DXR=  3.13D-02 DFR=  9.83D-04 which will be used.
 Gradient too large for Newton-Raphson -- use scaled steepest descent instead.
 Gradient too large for Newton-Raphson -- use scaled steepest descent instead.
     Minimum is close to point  4 DX=  5.51D-02 DF= -2.12D-07 DXR=  7.30D-02 DFR=  5.40D-03 which will be used.
 LinEq1:  Iter=  0 NonCon=     1 RMS=1.43D-03 Max=8.03D-02 NDo=     1
 LinEq1:  Iter=  1 NonCon=     1 RMS=5.63D-03 Max=2.76D-01 NDo=     1
 LinEq1:  Iter=  2 NonCon=     1 RMS=2.55D-03 Max=1.02D-01 NDo=     1
 LinEq1:  Iter=  3 NonCon=     1 RMS=1.21D-03 Max=4.09D-02 NDo=     1
 LinEq1:  Iter=  4 NonCon=     1 RMS=9.76D-04 Max=2.01D-02 NDo=     1
 LinEq1:  Iter=  5 NonCon=     1 RMS=6.02D-04 Max=1.84D-02 NDo=     1
 LinEq1:  Iter=  6 NonCon=     1 RMS=2.11D-04 Max=3.79D-03 NDo=     1
 LinEq1:  Iter=  7 NonCon=     1 RMS=7.54D-05 Max=1.14D-03 NDo=     1
 LinEq1:  Iter=  8 NonCon=     1 RMS=1.57D-05 Max=3.34D-04 NDo=     1
 LinEq1:  Iter=  9 NonCon=     1 RMS=5.21D-06 Max=2.01D-04 NDo=     1
 LinEq1:  Iter= 10 NonCon=     1 RMS=1.83D-06 Max=5.23D-05 NDo=     1
 LinEq1:  Iter= 11 NonCon=     1 RMS=5.24D-07 Max=1.32D-05 NDo=     1
 LinEq1:  Iter= 12 NonCon=     1 RMS=1.06D-07 Max=2.35D-06 NDo=     1
 LinEq1:  Iter= 13 NonCon=     1 RMS=3.06D-08 Max=8.83D-07 NDo=     1
 LinEq1:  Iter= 14 NonCon=     1 RMS=1.24D-08 Max=3.82D-07 NDo=     1
 LinEq1:  Iter= 15 NonCon=     1 RMS=4.33D-09 Max=9.87D-08 NDo=     1
 LinEq1:  Iter= 16 NonCon=     0 RMS=1.17D-09 Max=2.77D-08 NDo=     1
 Linear equations converged to 5.756D-09 5.756D-08 after    16 iterations.
 Incorrect curvature in search direction -- initial direction reversed.
 Gradient too large for Newton-Raphson -- use scaled steepest descent instead.
 LinEq1:  Iter=  0 NonCon=     1 RMS=6.14D-04 Max=2.58D-02 NDo=     1
 LinEq1:  Iter=  1 NonCon=     1 RMS=6.14D-03 Max=2.93D-01 NDo=     1
 LinEq1:  Iter=  2 NonCon=     1 RMS=1.20D-03 Max=3.23D-02 NDo=     1
 LinEq1:  Iter=  3 NonCon=     1 RMS=6.74D-04 Max=1.64D-02 NDo=     1
 LinEq1:  Iter=  4 NonCon=     1 RMS=6.12D-04 Max=1.21D-02 NDo=     1
 LinEq1:  Iter=  5 NonCon=     1 RMS=4.44D-04 Max=1.10D-02 NDo=     1
 LinEq1:  Iter=  6 NonCon=     1 RMS=2.47D-04 Max=6.91D-03 NDo=     1
 LinEq1:  Iter=  7 NonCon=     1 RMS=1.60D-04 Max=3.10D-03 NDo=     1
 LinEq1:  Iter=  8 NonCon=     1 RMS=4.68D-05 Max=7.97D-04 NDo=     1
 LinEq1:  Iter=  9 NonCon=     1 RMS=1.54D-05 Max=5.89D-04 NDo=     1
 LinEq1:  Iter= 10 NonCon=     1 RMS=5.65D-06 Max=1.38D-04 NDo=     1
 LinEq1:  Iter= 11 NonCon=     1 RMS=1.49D-06 Max=3.05D-05 NDo=     1
 LinEq1:  Iter= 12 NonCon=     1 RMS=4.36D-07 Max=1.12D-05 NDo=     1
 LinEq1:  Iter= 13 NonCon=     1 RMS=1.84D-07 Max=3.60D-06 NDo=     1
 LinEq1:  Iter= 14 NonCon=     1 RMS=4.74D-08 Max=7.03D-07 NDo=     1
 LinEq1:  Iter= 15 NonCon=     1 RMS=9.82D-09 Max=1.26D-07 NDo=     1
 LinEq1:  Iter= 16 NonCon=     1 RMS=2.85D-09 Max=6.11D-08 NDo=     1
 LinEq1:  Iter= 17 NonCon=     0 RMS=8.55D-10 Max=2.13D-08 NDo=     1
 Linear equations converged to 5.756D-09 5.756D-08 after    17 iterations.
 Incorrect curvature in search direction -- initial direction reversed.
 Gradient too large for Newton-Raphson -- use scaled steepest descent instead.
     Minimum is close to point  3 DX=  1.00D-03 DF= -3.50D-09 DXR=  5.00D-03 DFR=  2.50D-05 which will be used.
 Gradient too large for Newton-Raphson -- use scaled steepest descent instead.
     Accept linear search using points  3 and  4.
 Gradient too large for Newton-Raphson -- use scaled steepest descent instead.
     Accept linear search using points  1 and  2.
 LinEq1:  Iter=  0 NonCon=     1 RMS=6.25D-04 Max=2.91D-02 NDo=     1
 LinEq1:  Iter=  1 NonCon=     1 RMS=3.70D-03 Max=2.01D-01 NDo=     1
 LinEq1:  Iter=  2 NonCon=     1 RMS=7.80D-04 Max=2.61D-02 NDo=     1
 LinEq1:  Iter=  3 NonCon=     1 RMS=4.73D-04 Max=7.27D-03 NDo=     1
 LinEq1:  Iter=  4 NonCon=     1 RMS=5.00D-04 Max=1.30D-02 NDo=     1
 LinEq1:  Iter=  5 NonCon=     1 RMS=2.62D-04 Max=4.72D-03 NDo=     1
 LinEq1:  Iter=  6 NonCon=     1 RMS=2.20D-04 Max=5.77D-03 NDo=     1
 LinEq1:  Iter=  7 NonCon=     1 RMS=8.17D-05 Max=1.21D-03 NDo=     1
 LinEq1:  Iter=  8 NonCon=     1 RMS=2.52D-05 Max=4.50D-04 NDo=     1
 LinEq1:  Iter=  9 NonCon=     1 RMS=9.04D-06 Max=2.94D-04 NDo=     1
 LinEq1:  Iter= 10 NonCon=     1 RMS=3.14D-06 Max=5.24D-05 NDo=     1
 LinEq1:  Iter= 11 NonCon=     1 RMS=7.82D-07 Max=1.26D-05 NDo=     1
 LinEq1:  Iter= 12 NonCon=     1 RMS=2.64D-07 Max=8.55D-06 NDo=     1
 LinEq1:  Iter= 13 NonCon=     1 RMS=8.24D-08 Max=1.72D-06 NDo=     1
 LinEq1:  Iter= 14 NonCon=     1 RMS=1.92D-08 Max=2.63D-07 NDo=     1
 LinEq1:  Iter= 15 NonCon=     1 RMS=4.80D-09 Max=7.30D-08 NDo=     1
 LinEq1:  Iter= 16 NonCon=     0 RMS=1.32D-09 Max=3.05D-08 NDo=     1
 Linear equations converged to 5.756D-09 5.756D-08 after    16 iterations.
 Gradient too large for Newton-Raphson -- use scaled steepest descent instead.
 Gradient too large for Newton-Raphson -- use scaled steepest descent instead.
     Accept linear search using points  4 and  5.
 Gradient too large for Newton-Raphson -- use scaled steepest descent instead.
     Accept linear search using points  1 and  2.
 LinEq1:  Iter=  0 NonCon=     1 RMS=1.00D-03 Max=5.30D-02 NDo=     1
 LinEq1:  Iter=  1 NonCon=     1 RMS=6.58D-03 Max=2.92D-01 NDo=     1
 LinEq1:  Iter=  2 NonCon=     1 RMS=1.41D-03 Max=3.18D-02 NDo=     1
 LinEq1:  Iter=  3 NonCon=     1 RMS=9.40D-04 Max=3.29D-02 NDo=     1
 LinEq1:  Iter=  4 NonCon=     1 RMS=4.33D-04 Max=1.03D-02 NDo=     1
 LinEq1:  Iter=  5 NonCon=     1 RMS=3.11D-04 Max=6.88D-03 NDo=     1
 LinEq1:  Iter=  6 NonCon=     1 RMS=2.46D-04 Max=4.56D-03 NDo=     1
 LinEq1:  Iter=  7 NonCon=     1 RMS=5.25D-05 Max=1.21D-03 NDo=     1
 LinEq1:  Iter=  8 NonCon=     1 RMS=1.24D-05 Max=2.81D-04 NDo=     1
 LinEq1:  Iter=  9 NonCon=     1 RMS=5.08D-06 Max=1.58D-04 NDo=     1
 LinEq1:  Iter= 10 NonCon=     1 RMS=1.78D-06 Max=3.67D-05 NDo=     1
 LinEq1:  Iter= 11 NonCon=     1 RMS=3.63D-07 Max=5.99D-06 NDo=     1
 LinEq1:  Iter= 12 NonCon=     1 RMS=9.69D-08 Max=3.64D-06 NDo=     1
 LinEq1:  Iter= 13 NonCon=     1 RMS=3.91D-08 Max=1.13D-06 NDo=     1
 LinEq1:  Iter= 14 NonCon=     1 RMS=9.31D-09 Max=2.09D-07 NDo=     1
 LinEq1:  Iter= 15 NonCon=     0 RMS=2.12D-09 Max=3.30D-08 NDo=     1
 Linear equations converged to 5.756D-09 5.756D-08 after    15 iterations.
 LinEq1:  Iter=  0 NonCon=     1 RMS=1.63D-03 Max=9.30D-02 NDo=     1
 LinEq1:  Iter=  1 NonCon=     1 RMS=4.08D-03 Max=1.91D-01 NDo=     1
 LinEq1:  Iter=  2 NonCon=     1 RMS=8.26D-04 Max=2.30D-02 NDo=     1
 LinEq1:  Iter=  3 NonCon=     1 RMS=7.10D-04 Max=2.30D-02 NDo=     1
 LinEq1:  Iter=  4 NonCon=     1 RMS=3.23D-04 Max=6.70D-03 NDo=     1
 LinEq1:  Iter=  5 NonCon=     1 RMS=2.41D-04 Max=5.19D-03 NDo=     1
 LinEq1:  Iter=  6 NonCon=     1 RMS=1.79D-04 Max=2.93D-03 NDo=     1
 LinEq1:  Iter=  7 NonCon=     1 RMS=4.89D-05 Max=1.23D-03 NDo=     1
 LinEq1:  Iter=  8 NonCon=     1 RMS=7.37D-06 Max=1.26D-04 NDo=     1
 LinEq1:  Iter=  9 NonCon=     1 RMS=2.57D-06 Max=9.50D-05 NDo=     1
 LinEq1:  Iter= 10 NonCon=     1 RMS=1.07D-06 Max=3.14D-05 NDo=     1
 LinEq1:  Iter= 11 NonCon=     1 RMS=2.63D-07 Max=4.57D-06 NDo=     1
 LinEq1:  Iter= 12 NonCon=     1 RMS=4.58D-08 Max=7.67D-07 NDo=     1
 LinEq1:  Iter= 13 NonCon=     1 RMS=1.15D-08 Max=2.01D-07 NDo=     1
 LinEq1:  Iter= 14 NonCon=     0 RMS=2.86D-09 Max=4.37D-08 NDo=     1
 Linear equations converged to 5.756D-09 5.756D-08 after    14 iterations.
     Accept linear search using points  1 and  2.
     Minimum is close to point  2 DX= -3.94D-02 DF= -4.25D-07 DXR=  4.10D-02 DFR=  1.90D-03 which will be used.
 LinEq1:  Iter=  0 NonCon=     1 RMS=2.43D-03 Max=1.40D-01 NDo=     1
 LinEq1:  Iter=  1 NonCon=     1 RMS=8.66D-04 Max=3.31D-02 NDo=     1
 LinEq1:  Iter=  2 NonCon=     1 RMS=5.13D-04 Max=1.28D-02 NDo=     1
 LinEq1:  Iter=  3 NonCon=     1 RMS=3.99D-04 Max=1.31D-02 NDo=     1
 LinEq1:  Iter=  4 NonCon=     1 RMS=1.26D-04 Max=3.22D-03 NDo=     1
 LinEq1:  Iter=  5 NonCon=     1 RMS=1.35D-04 Max=3.85D-03 NDo=     1
 LinEq1:  Iter=  6 NonCon=     1 RMS=3.63D-05 Max=7.11D-04 NDo=     1
 LinEq1:  Iter=  7 NonCon=     1 RMS=1.65D-05 Max=5.04D-04 NDo=     1
 LinEq1:  Iter=  8 NonCon=     1 RMS=6.81D-06 Max=1.61D-04 NDo=     1
 LinEq1:  Iter=  9 NonCon=     1 RMS=1.61D-06 Max=2.80D-05 NDo=     1
 LinEq1:  Iter= 10 NonCon=     1 RMS=3.91D-07 Max=7.93D-06 NDo=     1
 LinEq1:  Iter= 11 NonCon=     1 RMS=8.59D-08 Max=2.77D-06 NDo=     1
 LinEq1:  Iter= 12 NonCon=     1 RMS=3.48D-08 Max=1.16D-06 NDo=     1
 LinEq1:  Iter= 13 NonCon=     1 RMS=9.11D-09 Max=1.77D-07 NDo=     1
 LinEq1:  Iter= 14 NonCon=     0 RMS=2.21D-09 Max=4.08D-08 NDo=     1
 Linear equations converged to 5.756D-09 5.756D-08 after    14 iterations.
     Minimum is close to point  2 DX=  8.61D-02 DF= -2.51D-07 DXR=  7.93D-02 DFR=  6.33D-03 which will be used.
 LinEq1:  Iter=  0 NonCon=     1 RMS=5.60D-05 Max=3.14D-03 NDo=     1
 LinEq1:  Iter=  1 NonCon=     1 RMS=2.15D-04 Max=1.04D-02 NDo=     1
 LinEq1:  Iter=  2 NonCon=     1 RMS=2.69D-05 Max=1.14D-03 NDo=     1
 LinEq1:  Iter=  3 NonCon=     1 RMS=1.55D-05 Max=4.23D-04 NDo=     1
 LinEq1:  Iter=  4 NonCon=     1 RMS=6.38D-06 Max=1.10D-04 NDo=     1
 LinEq1:  Iter=  5 NonCon=     1 RMS=1.99D-06 Max=4.86D-05 NDo=     1
 LinEq1:  Iter=  6 NonCon=     1 RMS=1.90D-06 Max=4.31D-05 NDo=     1
 LinEq1:  Iter=  7 NonCon=     1 RMS=9.74D-07 Max=2.06D-05 NDo=     1
 LinEq1:  Iter=  8 NonCon=     1 RMS=3.81D-07 Max=1.02D-05 NDo=     1
 LinEq1:  Iter=  9 NonCon=     1 RMS=7.56D-08 Max=1.59D-06 NDo=     1
 LinEq1:  Iter= 10 NonCon=     1 RMS=3.40D-08 Max=1.08D-06 NDo=     1
 LinEq1:  Iter= 11 NonCon=     1 RMS=1.32D-08 Max=2.22D-07 NDo=     1
 LinEq1:  Iter= 12 NonCon=     1 RMS=1.99D-09 Max=4.37D-08 NDo=     1
 LinEq1:  Iter= 13 NonCon=     1 RMS=7.69D-10 Max=2.36D-08 NDo=     1
 LinEq1:  Iter= 14 NonCon=     0 RMS=2.48D-10 Max=3.75D-09 NDo=     1
 Linear equations converged to 2.267D-09 2.267D-08 after    14 iterations.
     Minimum is close to point  2 DX=  1.41D-02 DF= -1.17D-10 DXR=  1.39D-02 DFR=  1.95D-04 which will be used.
 LinEq1:  Iter=  0 NonCon=     1 RMS=8.62D-06 Max=4.95D-04 NDo=     1
 LinEq1:  Iter=  1 NonCon=     1 RMS=2.67D-06 Max=9.25D-05 NDo=     1
 LinEq1:  Iter=  2 NonCon=     1 RMS=1.64D-06 Max=3.85D-05 NDo=     1
 LinEq1:  Iter=  3 NonCon=     1 RMS=1.32D-06 Max=3.82D-05 NDo=     1
 LinEq1:  Iter=  4 NonCon=     1 RMS=4.47D-07 Max=9.62D-06 NDo=     1
 LinEq1:  Iter=  5 NonCon=     1 RMS=4.62D-07 Max=1.25D-05 NDo=     1
 LinEq1:  Iter=  6 NonCon=     1 RMS=1.42D-07 Max=2.84D-06 NDo=     1
 LinEq1:  Iter=  7 NonCon=     1 RMS=5.98D-08 Max=2.45D-06 NDo=     1
 LinEq1:  Iter=  8 NonCon=     1 RMS=2.24D-08 Max=6.61D-07 NDo=     1
 LinEq1:  Iter=  9 NonCon=     1 RMS=5.50D-09 Max=1.11D-07 NDo=     1
 LinEq1:  Iter= 10 NonCon=     1 RMS=1.48D-09 Max=3.22D-08 NDo=     1
 LinEq1:  Iter= 11 NonCon=     1 RMS=3.42D-10 Max=1.17D-08 NDo=     1
 LinEq1:  Iter= 12 NonCon=     1 RMS=1.29D-10 Max=4.17D-09 NDo=     1
 LinEq1:  Iter= 13 NonCon=     0 RMS=3.45D-11 Max=5.96D-10 NDo=     1
 Linear equations converged to 3.294D-10 3.294D-09 after    13 iterations.
 SCF Done:  E(UB3LYP) =  -1792.49952464     a.u. after   39 cycles
            Convg  =    0.1010D-07                   302 Fock formations.
              S**2 =  0.7629                  -V/T =  2.0006
 <Sx>= 0.0000 <Sy>= 0.0000 <Sz>= 0.5000 <S**2>= 0.7629 S= 0.5064
 <L.S>= 0.000000000000E+00
 Annihilation of the first spin contaminant:
 S**2 before annihilation     0.7629,   after     0.7500

 **********************************************************************

            Population analysis using the SCF density.

 **********************************************************************

 Orbital symmetries:
 Alpha Orbitals:
       Occupied  (A') (A') (A') (A") (A') (A') (A') (A') (A') (A")
                 (A') (A') (A') (A') (A") (A') (A") (A') (A') (A')
                 (A') (A") (A') (A")
       Virtual   (A') (A') (A') (A') (A") (A') (A') (A') (A') (A")
                 (A') (A") (A') (A') (A') (A") (A') (A') (A") (A')
                 (A") (A') (A') (A") (A') (A') (A') (A') (A') (A")
                 (A") (A") (A') (A') (A") (A') (A') (A') (A") (A')
                 (A') (A") (A") (A') (A') (A') (A") (A') (A') (A")
                 (A') (A') (A") (A') (A") (A') (A") (A') (A') (A")
                 (A') (A') (A') (A") (A') (A') (A') (A') (A') (A')
 Beta  Orbitals:
       Occupied  (A') (A') (A') (A') (A") (A') (A') (A') (A') (A')
                 (A") (A') (A') (A') (A") (A') (A") (A') (A') (A")
                 (A') (A") (A')
       Virtual   (A') (A') (A') (A') (A') (A") (A') (A') (A') (A')
                 (A") (A') (A") (A') (A') (A') (A") (A') (A') (A")
                 (A') (A") (A') (A') (A") (A') (A') (A') (A') (A')
                 (A") (A") (A") (A") (A') (A') (A') (A') (A') (A")
                 (A') (A') (A") (A') (A") (A") (A') (A') (A') (A")
                 (A') (A') (A') (A") (A') (A") (A') (A") (A') (A')
                 (A") (A') (A') (A') (A") (A') (A') (A') (A') (A')
                 (A')
 The electronic state is 2-A'.
 Alpha  occ. eigenvalues -- -323.45507 -39.24993 -34.48287 -34.46539 -34.46448
 Alpha  occ. eigenvalues --  -19.56273 -19.56127  -4.78559  -3.30719  -3.27079
 Alpha  occ. eigenvalues --   -3.26907  -1.45203  -1.44069  -1.03085  -1.00902
 Alpha  occ. eigenvalues --   -0.87141  -0.79259  -0.77251  -0.76959  -0.76070
 Alpha  occ. eigenvalues --   -0.75611  -0.75560  -0.75480  -0.73210
 Alpha virt. eigenvalues --   -0.50519  -0.31735  -0.30435  -0.23617  -0.20718
 Alpha virt. eigenvalues --   -0.18809  -0.04226  -0.02088   0.04625   0.12278
 Alpha virt. eigenvalues --    0.28355   0.31270   0.34419   0.37458   0.43625
 Alpha virt. eigenvalues --    0.52993   0.68766   0.74723   0.83092   0.85404
 Alpha virt. eigenvalues --    0.98668   0.98721   0.99436   1.02110   1.20805
 Alpha virt. eigenvalues --    1.27384   1.54559   1.56369   1.72737   1.73780
 Alpha virt. eigenvalues --    2.28036   2.29041   2.35946   2.36093   2.37821
 Alpha virt. eigenvalues --    2.53477   2.69821   2.71976   2.73478   3.03738
 Alpha virt. eigenvalues --    3.04561   3.48042   3.48561   3.48603   3.48840
 Alpha virt. eigenvalues --    3.49136   3.49172   3.49351   4.27274   4.30361
 Alpha virt. eigenvalues --    4.35516   4.44326   4.64986   4.67542   6.70313
 Alpha virt. eigenvalues --    6.70414   6.72170   6.76252   6.80431   8.79921
 Alpha virt. eigenvalues --    8.85473   9.08361  31.48366  42.25961  42.29622
 Alpha virt. eigenvalues --   42.44483  49.26900  49.29968 183.55086 978.80659
  Beta  occ. eigenvalues -- -323.45505 -39.23792 -34.46646 -34.45861 -34.45842
  Beta  occ. eigenvalues --  -19.55995 -19.54880  -4.76094  -3.26136  -3.25421
  Beta  occ. eigenvalues --   -3.25307  -1.44906  -1.40521  -1.02982  -0.99933
  Beta  occ. eigenvalues --   -0.84867  -0.78680  -0.75997  -0.74607  -0.74177
  Beta  occ. eigenvalues --   -0.74175  -0.72728  -0.65481
  Beta virt. eigenvalues --   -0.62828  -0.49695  -0.31639  -0.29942  -0.23568
  Beta virt. eigenvalues --   -0.20454  -0.18660  -0.04143  -0.01763   0.04735
  Beta virt. eigenvalues --    0.12433   0.29019   0.31380   0.38207   0.38767
  Beta virt. eigenvalues --    0.43743   0.53682   0.69088   0.76578   0.83759
  Beta virt. eigenvalues --    0.85898   0.99318   0.99519   1.02176   1.02465
  Beta virt. eigenvalues --    1.21192   1.28514   1.54861   1.56537   1.72812
  Beta virt. eigenvalues --    1.73674   2.29141   2.32617   2.38192   2.40207
  Beta virt. eigenvalues --    2.40492   2.54057   2.70121   2.73201   2.74232
  Beta virt. eigenvalues --    3.04427   3.06080   3.48734   3.48796   3.49982
  Beta virt. eigenvalues --    3.50167   3.50168   3.51206   3.51743   4.30474
  Beta virt. eigenvalues --    4.33425   4.36745   4.44951   4.66227   4.67659
  Beta virt. eigenvalues --    6.71436   6.71554   6.72912   6.77034   6.85217
  Beta virt. eigenvalues --    8.81066   8.86447   9.11061  31.49966  42.26865
  Beta virt. eigenvalues --   42.30397  42.46656  49.28304  49.30102 183.55689
  Beta virt. eigenvalues --  978.80779
          Condensed to atoms (all electrons):
               1          2          3          4          5          6
     1  Cu  27.635009   0.005535   0.113285  -0.005808  -0.005725  -0.000341
     2  O    0.005535   8.061377   0.000000  -0.000002  -0.000013   0.250300
     3  O    0.113285   0.000000   8.330157   0.244862   0.245593   0.000001
     4  H   -0.005808  -0.000002   0.244862   0.194011  -0.008897   0.000000
     5  H   -0.005725  -0.000013   0.245593  -0.008897   0.198701   0.000000
     6  H   -0.000341   0.250300   0.000001   0.000000   0.000000   0.212874
     7  H   -0.000341   0.250300   0.000001   0.000000   0.000000  -0.011252
               7
     1  Cu  -0.000341
     2  O    0.250300
     3  O    0.000001
     4  H    0.000000
     5  H    0.000000
     6  H   -0.011252
     7  H    0.212874
          Atomic-Atomic Spin Densities.
               1          2          3          4          5          6
     1  Cu   0.440357  -0.000463  -0.009050   0.000131   0.000084   0.000030
     2  O   -0.000463   0.567101   0.000000   0.000000   0.000001  -0.006426
     3  O   -0.009050   0.000000   0.056202   0.000164   0.000197   0.000000
     4  H    0.000131   0.000000   0.000164  -0.000952  -0.000053   0.000000
     5  H    0.000084   0.000001   0.000197  -0.000053  -0.000989   0.000000
     6  H    0.000030  -0.006426   0.000000   0.000000   0.000000  -0.009669
     7  H    0.000030  -0.006426   0.000000   0.000000   0.000000   0.000592
               7
     1  Cu   0.000030
     2  O   -0.006426
     3  O    0.000000
     4  H    0.000000
     5  H    0.000000
     6  H    0.000592
     7  H   -0.009669
 Mulliken charges and spin densities:
               1          2
     1  Cu   1.258387   0.431117
     2  O   -0.567497   0.553787
     3  O   -0.933898   0.047513
     4  H    0.575833  -0.000710
     5  H    0.570340  -0.000760
     6  H    0.548417  -0.015473
     7  H    0.548417  -0.015473
 Sum of Mulliken charges =   2.00000   1.00000
 Mulliken charges and spin densities with hydrogens summed into heavy atoms:
               1          2
     1  Cu   1.258387   0.431117
     2  O    0.529338   0.522841
     3  O    0.212276   0.046042
 Electronic spatial extent (au):  <R**2>=            646.0156
 Charge=              2.0000 electrons
 Dipole moment (field-independent basis, Debye):
    X=             -1.9193    Y=             -3.5178    Z=              0.0000  Tot=              4.0073
 Quadrupole moment (field-independent basis, Debye-Ang):
   XX=              1.4185   YY=             19.9984   ZZ=            -16.6720
   XY=             23.1376   XZ=              0.0000   YZ=              0.0000
 Traceless Quadrupole moment (field-independent basis, Debye-Ang):
   XX=             -0.1631   YY=             18.4168   ZZ=            -18.2537
   XY=             23.1376   XZ=              0.0000   YZ=              0.0000
 Octapole moment (field-independent basis, Debye-Ang**2):
  XXX=              4.5084  YYY=            -66.8948  ZZZ=              0.0000  XYY=            -48.9320
  XXY=            -21.8683  XXZ=              0.0000  XZZ=            -10.2361  YZZ=            -10.6497
  YYZ=              0.0000  XYZ=              0.0000
 Hexadecapole moment (field-independent basis, Debye-Ang**3):
 XXXX=           -126.0224 YYYY=              7.0719 ZZZZ=            -11.2964 XXXY=            -40.0312
 XXXZ=              0.0000 YYYX=            108.4734 YYYZ=              0.0000 ZZZX=              0.0000
 ZZZY=              0.0000 XXYY=             39.3845 XXZZ=            -28.2057 YYZZ=            -24.7679
 XXYZ=              0.0000 YYXZ=              0.0000 ZZXY=            -19.3482
 N-N= 1.446536171194D+02 E-N=-4.554732940086D+03  KE= 1.791475722114D+03
 Symmetry A'   KE= 1.561511110639D+03
 Symmetry A"   KE= 2.299646114749D+02
                          Isotropic Fermi Contact Couplings
        Atom                 a.u.       MegaHertz       Gauss      10(-4) cm-1
     1  Cu(63)            -0.13133    -155.77039     -55.58275     -51.95941
     2  O(17)              0.06198     -37.57010     -13.40594     -12.53204
     3  O(17)              0.02943     -17.83740      -6.36483      -5.94991
     4  H(1)              -0.00033      -1.48509      -0.52992      -0.49537
     5  H(1)              -0.00034      -1.53051      -0.54612      -0.51052
     6  H(1)              -0.00832     -37.19223     -13.27111     -12.40599
     7  H(1)              -0.00832     -37.19223     -13.27111     -12.40599
 --------------------------------------------------------
       Center         ----  Spin Dipole Couplings  ----
                      3XX-RR        3YY-RR        3ZZ-RR
 --------------------------------------------------------
     1   Atom        1.667946     -0.740857     -0.927089
     2   Atom        1.316704     -0.234464     -1.082240
     3   Atom        0.156803     -0.054057     -0.102746
     4   Atom        0.000200      0.010812     -0.011011
     5   Atom        0.011179     -0.000007     -0.011172
     6   Atom       -0.034483     -0.044558      0.079041
     7   Atom       -0.034483     -0.044558      0.079041
 --------------------------------------------------------
                        XY            XZ            YZ
 --------------------------------------------------------
     1   Atom        1.232679      0.000000      0.000000
     2   Atom       -1.431522      0.000000      0.000000
     3   Atom        0.110055      0.000000      0.000000
     4   Atom        0.005748      0.000000      0.000000
     5   Atom       -0.004236      0.000000      0.000000
     6   Atom       -0.010665     -0.024671     -0.044871
     7   Atom       -0.010665      0.024671      0.044871
 --------------------------------------------------------


 ---------------------------------------------------------------------------------
              Anisotropic Spin Dipole Couplings in Principal Axis System
 ---------------------------------------------------------------------------------

       Atom             a.u.   MegaHertz   Gauss  10(-4) cm-1        Axes

              Baa    -1.2598  -178.371   -63.647   -59.498 -0.3880  0.9216  0.0000
     1 Cu(63) Bbb    -0.9271  -131.259   -46.836   -43.783  0.0000  0.0000  1.0000
              Bcc     2.1869   309.630   110.484   103.282  0.9216  0.3880  0.0000
 
              Baa    -1.0870    78.655    28.066    26.236  0.5117  0.8592  0.0000
     2 O(17)  Bbb    -1.0822    78.310    27.943    26.121  0.0000  0.0000  1.0000
              Bcc     2.1692  -156.965   -56.009   -52.358  0.8592 -0.5117  0.0000
 
              Baa    -0.1027     7.435     2.653     2.480  0.0000  0.0000  1.0000
     3 O(17)  Bbb    -0.1010     7.311     2.609     2.439 -0.3926  0.9197  0.0000
              Bcc     0.2038   -14.745    -5.261    -4.919  0.9197  0.3926  0.0000
 
              Baa    -0.0110    -5.875    -2.096    -1.960  0.0000  0.0000  1.0000
     4 H(1)   Bbb    -0.0023    -1.236    -0.441    -0.412  0.9160 -0.4011  0.0000
              Bcc     0.0133     7.111     2.538     2.372  0.4011  0.9160  0.0000
 
              Baa    -0.0112    -5.961    -2.127    -1.988  0.0000  0.0000  1.0000
     5 H(1)   Bbb    -0.0014    -0.763    -0.272    -0.255  0.3185  0.9479  0.0000
              Bcc     0.0126     6.724     2.399     2.243  0.9479 -0.3185  0.0000
 
              Baa    -0.0690   -36.810   -13.135   -12.278  0.4844  0.8115  0.3267
     6 H(1)   Bbb    -0.0278   -14.818    -5.287    -4.943  0.8611 -0.5082 -0.0146
              Bcc     0.0968    51.627    18.422    17.221 -0.1542 -0.2884  0.9450
 
              Baa    -0.0690   -36.810   -13.135   -12.278  0.4844  0.8115 -0.3267
     7 H(1)   Bbb    -0.0278   -14.818    -5.287    -4.943  0.8611 -0.5082  0.0146
              Bcc     0.0968    51.627    18.422    17.221  0.1542  0.2884  0.9450
 

 ---------------------------------------------------------------------------------

 Calling FoFJK, ICntrl=      2127 FMM=F ISym2X=1 I1Cent= 0 IOpClX= 1 NMat=1 NMatS=1 NMatT=0.
 ***** Axes restored to original set *****
 -------------------------------------------------------------------
 Center     Atomic                   Forces (Hartrees/Bohr)
 Number     Number              X              Y              Z
 -------------------------------------------------------------------
      1       29          -0.004304066    0.000000025    0.000730660
      2        8           0.002994732    0.000000000   -0.073069194
      3        8          -0.052377897   -0.000000019    0.064300999
      4        1           0.028879521   -0.000000003   -0.034224937
      5        1           0.027782390   -0.000000003   -0.035712649
      6        1          -0.001487340    0.007143444    0.038987560
      7        1          -0.001487340   -0.007143444    0.038987561
 -------------------------------------------------------------------
 Cartesian Forces:  Max     0.073069194 RMS     0.030428970

 GradGradGradGradGradGradGradGradGradGradGradGradGradGradGradGradGradGrad
 Berny optimization.
 FormGI is forming the generalized inverse of G from B-inverse, IUseBI=4.
 Internal  Forces:  Max     0.051148958 RMS     0.020166158
 Search for a local minimum.
 Step number   1 out of a maximum of  100 on scan point     1 out of    26
 All quantities printed in internal units (Hartrees-Bohrs-Radians)
 Mixed Optimization -- RFO/linear search
 Second derivative matrix not updated -- first step.
 The second derivative matrix:
                          R1        R2        R3        R4        R5
           R1           0.00858
           R2           0.00000   0.19001
           R3           0.00000   0.00000   0.57681
           R4           0.00000   0.00000   0.00000   0.57681
           R5           0.00000   0.00000   0.00000   0.00000   0.57681
           R6           0.00000   0.00000   0.00000   0.00000   0.00000
           A1           0.00000   0.00000   0.00000   0.00000   0.00000
           A2           0.00000   0.00000   0.00000   0.00000   0.00000
           A3           0.00000   0.00000   0.00000   0.00000   0.00000
           A4           0.00000   0.00000   0.00000   0.00000   0.00000
           A5           0.00000   0.00000   0.00000   0.00000   0.00000
           A6           0.00000   0.00000   0.00000   0.00000   0.00000
           A7           0.00000   0.00000   0.00000   0.00000   0.00000
           D1           0.00000   0.00000   0.00000   0.00000   0.00000
           D2           0.00000   0.00000   0.00000   0.00000   0.00000
           D3           0.00000   0.00000   0.00000   0.00000   0.00000
           D4           0.00000   0.00000   0.00000   0.00000   0.00000
           D5           0.00000   0.00000   0.00000   0.00000   0.00000
           D6           0.00000   0.00000   0.00000   0.00000   0.00000
                          R6        A1        A2        A3        A4
           R6           0.57681
           A1           0.00000   0.25000
           A2           0.00000   0.00000   0.16000
           A3           0.00000   0.00000   0.00000   0.16000
           A4           0.00000   0.00000   0.00000   0.00000   0.16000
           A5           0.00000   0.00000   0.00000   0.00000   0.00000
           A6           0.00000   0.00000   0.00000   0.00000   0.00000
           A7           0.00000   0.00000   0.00000   0.00000   0.00000
           D1           0.00000   0.00000   0.00000   0.00000   0.00000
           D2           0.00000   0.00000   0.00000   0.00000   0.00000
           D3           0.00000   0.00000   0.00000   0.00000   0.00000
           D4           0.00000   0.00000   0.00000   0.00000   0.00000
           D5           0.00000   0.00000   0.00000   0.00000   0.00000
           D6           0.00000   0.00000   0.00000   0.00000   0.00000
                          A5        A6        A7        D1        D2
           A5           0.16000
           A6           0.00000   0.16000
           A7           0.00000   0.00000   0.16000
           D1           0.00000   0.00000   0.00000   0.00230
           D2           0.00000   0.00000   0.00000   0.00000   0.00230
           D3           0.00000   0.00000   0.00000   0.00000   0.00000
           D4           0.00000   0.00000   0.00000   0.00000   0.00000
           D5           0.00000   0.00000   0.00000   0.00000   0.00000
           D6           0.00000   0.00000   0.00000   0.00000   0.00000
                          D3        D4        D5        D6
           D3           0.03612
           D4           0.00000   0.03612
           D5           0.00000   0.00000   0.01690
           D6           0.00000   0.00000   0.00000   0.01690
 ITU=  0
     Eigenvalues ---    0.00230   0.01424   0.02039   0.03612   0.16000
     Eigenvalues ---    0.16000   0.16000   0.16000   0.19001   0.57681
     Eigenvalues ---    0.57681   0.57681   0.576811000.000001000.00000
     Eigenvalues --- 1000.000001000.000001000.000001000.00000
 RFO step:  Lambda=-3.52980308D-02 EMin= 2.30000000D-03
 Linear search not attempted -- first point.
 Maximum step size (   0.300) exceeded in Quadratic search.
    -- Step size scaled by   0.720
 Iteration  1 RMS(Cart)=  0.07363736 RMS(Int)=  0.00326157
 Iteration  2 RMS(Cart)=  0.00320086 RMS(Int)=  0.00040659
 Iteration  3 RMS(Cart)=  0.00000381 RMS(Int)=  0.00040658
 Iteration  4 RMS(Cart)=  0.00000000 RMS(Int)=  0.00040658
 Iteration  1 RMS(Cart)=  0.00000000 RMS(Int)=  0.00000000
 ClnCor:  largest displacement from symmetrization is 1.16D-05 for atom     7.
 Variable       Old X    -DE/DX   Delta X   Delta X   Delta X     New X
                                 (Linear)    (Quad)   (Total)
    R1        7.34197   0.00489   0.00000   0.00000   0.00000   7.34197
    R2        3.56225   0.00711   0.00000   0.02273   0.02273   3.58498
    R3        1.79524   0.01973   0.00000   0.02320   0.02321   1.81845
    R4        1.79524   0.01973   0.00000   0.02320   0.02321   1.81845
    R5        1.79524   0.01479   0.00000   0.01739   0.01739   1.81263
    R6        1.79524   0.01353   0.00000   0.01591   0.01591   1.81115
    A1        2.44346   0.00248   0.00000   0.00000   0.00000   2.44346
    A2        1.91063   0.02057   0.00000   0.07582   0.07577   1.98641
    A3        1.91063   0.02057   0.00000   0.07582   0.07577   1.98641
    A4        2.46192  -0.04114   0.00000  -0.15165  -0.15169   2.31023
    A5        1.91063   0.02478   0.00000   0.09135   0.09135   2.00199
    A6        1.91063   0.02637   0.00000   0.09721   0.09721   2.00784
    A7        2.46192  -0.05115   0.00000  -0.18856  -0.18856   2.27336
    D1        1.57080   0.00047   0.00000   0.00682   0.00791   1.57870
    D2       -1.57080  -0.00047   0.00000  -0.00682  -0.00791  -1.57870
    D3        3.14159   0.00000   0.00000   0.00000   0.00000   3.14159
    D4        0.00000   0.00000   0.00000   0.00000   0.00000   0.00000
    D5        3.14159  -0.00141   0.00000  -0.02046  -0.01958   3.12201
    D6        3.14159   0.00000   0.00000   0.00000   0.00000   3.14159
         Item               Value     Threshold  Converged?
 Maximum Force            0.051149     0.000450     NO 
 RMS     Force            0.021278     0.000300     NO 
 Maximum Displacement     0.184063     0.001800     NO 
 RMS     Displacement     0.074069     0.001200     NO 
 Predicted change in Energy=-1.786231D-02
 GradGradGradGradGradGradGradGradGradGradGradGradGradGradGradGradGradGrad

                          Input orientation:                          
 ---------------------------------------------------------------------
 Center     Atomic      Atomic             Coordinates (Angstroms)
 Number     Number       Type             X           Y           Z
 ---------------------------------------------------------------------
      1         29           0       -0.020403    0.000000    0.004626
      2          8           0       -0.007592    0.000000    3.889808
      3          8           0        1.194223    0.000000   -1.452641
      4          1           0        0.781524    0.000000   -2.318524
      5          1           0        2.120972    0.000000   -1.208299
      6          1           0       -0.013272    0.880335    4.278347
      7          1           0       -0.013272   -0.880335    4.278347
 ---------------------------------------------------------------------
                    Distance matrix (angstroms):
                    1          2          3          4          5
     1  Cu   0.000000
     2  O    3.885203   0.000000
     3  O    1.897088   5.475958   0.000000
     4  H    2.457664   6.258281   0.959205   0.000000
     5  H    2.461031   5.524624   0.958419   1.739747   0.000000
     6  H    4.363454   0.962281   5.922605   6.702641   5.952585
     7  H    4.363454   0.962281   5.922605   6.702641   5.952585
                    6          7
     6  H    0.000000
     7  H    1.760669   0.000000
 Stoichiometry    CuH4O2(2+,2)
 Framework group  CS[SG(CuH2O2),X(H2)]
 Deg. of freedom    10
 Full point group                 CS      NOp   2
 Largest Abelian subgroup         CS      NOp   2
 Largest concise Abelian subgroup CS      NOp   2
                         Standard orientation:                         
 ---------------------------------------------------------------------
 Center     Atomic      Atomic             Coordinates (Angstroms)
 Number     Number       Type             X           Y           Z
 ---------------------------------------------------------------------
      1         29           0        0.000000    0.562728    0.000000
      2          8           0       -1.788959   -2.886102    0.000000
      3          8           0        1.751620    1.291267    0.000000
      4          1           0        1.787134    2.249815    0.000000
      5          1           0        2.459645    0.645305    0.000000
      6          1           0       -1.974033   -3.227778    0.880335
      7          1           0       -1.974033   -3.227778   -0.880335
 ---------------------------------------------------------------------
 Rotational constants (GHZ):     26.5709367      1.6435897      1.5627991
 Standard basis: 6-311G(d) (5D, 7F)
 There are    74 symmetry adapted cartesian basis functions of A'  symmetry.
 There are    28 symmetry adapted cartesian basis functions of A"  symmetry.
 There are    67 symmetry adapted basis functions of A'  symmetry.
 There are    27 symmetry adapted basis functions of A"  symmetry.
    94 basis functions,   165 primitive gaussians,   102 cartesian basis functions
    24 alpha electrons       23 beta electrons
       nuclear repulsion energy       143.4541910333 Hartrees.
 NAtoms=    7 NActive=    7 NUniq=    6 SFac= 1.36D+00 NAtFMM=   60 NAOKFM=F Big=F
 Integral buffers will be    131072 words long.
 Raffenetti 2 integral format.
 Two-electron integral symmetry is turned on.
 One-electron integrals computed using PRISM.
 NBasis=    94 RedAO= T EigKep=  1.33D-02  NBF=    67    27
 NBsUse=    94 1.00D-06 EigRej= -1.00D+00 NBFU=    67    27
 Initial guess from the checkpoint file:  "pescuh2o2.chk"
 B after Tr=     0.000000    0.000000    0.000000
         Rot=    0.999992    0.000000    0.000000    0.003897 Ang=   0.45 deg.
 Initial guess orbital symmetries:
 Alpha Orbitals:
       Occupied  (A') (A') (A') (A") (A') (A') (A') (A') (A') (A")
                 (A') (A') (A') (A') (A") (A') (A") (A') (A') (A')
                 (A') (A") (A') (A")
       Virtual   (A') (A') (A') (A') (A') (A') (A') (A') (A') (A')
                 (A') (A') (A') (A') (A') (A') (A') (A') (A') (A')
                 (A') (A') (A') (A') (A') (A') (A') (A') (A') (A')
                 (A') (A') (A') (A') (A') (A') (A') (A') (A') (A')
                 (A') (A') (A') (A') (A') (A') (A') (A') (A') (A")
                 (A") (A") (A") (A") (A") (A") (A") (A") (A") (A")
                 (A") (A") (A") (A") (A") (A") (A") (A") (A") (A")
 Beta  Orbitals:
       Occupied  (A') (A') (A') (A') (A") (A') (A') (A') (A') (A')
                 (A") (A') (A') (A') (A") (A') (A") (A') (A') (A")
                 (A') (A") (A')
       Virtual   (A') (A') (A') (A') (A') (A') (A') (A') (A') (A')
                 (A') (A') (A') (A') (A') (A') (A') (A') (A') (A')
                 (A') (A') (A') (A') (A') (A') (A') (A') (A') (A')
                 (A') (A') (A') (A') (A') (A') (A') (A') (A') (A')
                 (A') (A') (A') (A') (A') (A') (A') (A') (A') (A')
                 (A") (A") (A") (A") (A") (A") (A") (A") (A") (A")
                 (A") (A") (A") (A") (A") (A") (A") (A") (A") (A")
                 (A")
 Initial guess <Sx>= 0.0000 <Sy>= 0.0000 <Sz>= 0.5000 <S**2>= 0.7630 S= 0.5065
 ExpMin= 4.08D-02 ExpMax= 3.37D+05 ExpMxC= 1.14D+04 IAcc=2 IRadAn=         4 AccDes= 0.00D+00
 Harris functional with IExCor=  402 and IRadAn=       4 diagonalized for initial guess.
 HarFok:  IExCor=  402 AccDes= 0.00D+00 IRadAn=         4 IDoV= 1 UseB2=F ITyADJ=14
 ICtDFT=  3500011 ScaDFX=  1.000000  1.000000  1.000000  1.000000
 FoFCou: FMM=F IPFlag=           0 FMFlag=      100000 FMFlg1=           0
         NFxFlg=           0 DoJE=T BraDBF=F KetDBF=T FulRan=T
         wScrn=  0.000000 ICntrl=     500 IOpCl=  0 I1Cent=   200000004 NGrid=           0
         NMat0=    1 NMatS0=      1 NMatT0=    0 NMatD0=    1 NMtDS0=    0 NMtDT0=    0
 Petite list used in FoFCou.
 Keep R1 and R2 ints in memory in symmetry-blocked form, NReq=15545797.
 Requested convergence on RMS density matrix=1.00D-08 within  64 cycles.
 Requested convergence on MAX density matrix=1.00D-06.
 Requested convergence on             energy=1.00D-06.
 No special actions if energy rises.
 EnCoef did     8 forward-backward iterations
 EnCoef did     2 forward-backward iterations
 EnCoef did    18 forward-backward iterations
 SCF Done:  E(UB3LYP) =  -1792.52215583     A.U. after   19 cycles
            NFock= 19  Conv=0.49D-08     -V/T= 2.0006
 <Sx>= 0.0000 <Sy>= 0.0000 <Sz>= 0.5000 <S**2>= 0.7622 S= 0.5061
 <L.S>= 0.000000000000E+00
 Annihilation of the first spin contaminant:
 S**2 before annihilation     0.7622,   after     0.7500
 QCSCF skips out because SCF is already converged.
 Calling FoFJK, ICntrl=      2127 FMM=F ISym2X=1 I1Cent= 0 IOpClX= 1 NMat=1 NMatS=1 NMatT=0.
 ***** Axes restored to original set *****
 -------------------------------------------------------------------
 Center     Atomic                   Forces (Hartrees/Bohr)
 Number     Number              X              Y              Z
 -------------------------------------------------------------------
      1       29           0.000091233    0.000000000   -0.003927231
      2        8           0.002948065    0.000000000   -0.057843403
      3        8          -0.038868804    0.000000000    0.046879275
      4        1           0.024987338    0.000000000   -0.018805975
      5        1           0.013776210    0.000000000   -0.028707133
      6        1          -0.001467021   -0.003795485    0.031202233
      7        1          -0.001467021    0.003795485    0.031202233
 -------------------------------------------------------------------
 Cartesian Forces:  Max     0.057843403 RMS     0.022939487

 GradGradGradGradGradGradGradGradGradGradGradGradGradGradGradGradGradGrad
 Berny optimization.
 Using GEDIIS/GDIIS optimizer.
 FormGI is forming the generalized inverse of G from B-inverse, IUseBI=4.
 Internal  Forces:  Max     0.037411685 RMS     0.015156974
 Search for a local minimum.
 Step number   2 out of a maximum of  100 on scan point     1 out of    26
 All quantities printed in internal units (Hartrees-Bohrs-Radians)
 Mixed Optimization -- RFO/linear search
 Update second derivatives using D2CorX and points    1    2
 DE= -2.26D-02 DEPred=-1.79D-02 R= 1.27D+00
 TightC=F SS=  1.41D+00  RLast= 3.01D-01 DXNew= 5.0454D-01 9.0250D-01
 Trust test= 1.27D+00 RLast= 3.01D-01 DXMaxT set to 5.05D-01
 The second derivative matrix:
                          R1        R2        R3        R4        R5
           R1           0.00860
           R2           0.00039   0.19631
           R3           0.00063   0.00819   0.58410
           R4           0.00063   0.00819   0.00728   0.58410
           R5           0.00051   0.00687   0.00662   0.00662   0.58271
           R6           0.00044   0.00587   0.00540   0.00540   0.00487
           A1           0.00001   0.00010   0.00015   0.00015   0.00012
           A2           0.00014  -0.00081  -0.00651  -0.00651  -0.00462
           A3           0.00014  -0.00082  -0.00652  -0.00652  -0.00463
           A4          -0.00028   0.00165   0.01308   0.01308   0.00930
           A5           0.00039   0.00327  -0.00108  -0.00108  -0.00009
           A6           0.00042   0.00368  -0.00084  -0.00084   0.00016
           A7          -0.00081  -0.00695   0.00192   0.00192  -0.00007
           D1          -0.00002  -0.00033  -0.00054  -0.00054  -0.00043
           D2           0.00002   0.00033   0.00054   0.00054   0.00043
           D3           0.00000   0.00000   0.00000   0.00000   0.00000
           D4           0.00000   0.00000   0.00000   0.00000   0.00000
           D5          -0.00002  -0.00029  -0.00033  -0.00033  -0.00028
           D6           0.00000   0.00000   0.00000   0.00000   0.00000
                          R6        A1        A2        A3        A4
           R6           0.58081
           A1           0.00011   0.25000
           A2          -0.00437   0.00003   0.15121
           A3          -0.00438   0.00003  -0.00880   0.15120
           A4           0.00879  -0.00007   0.01762   0.01762   0.12471
           A5          -0.00048   0.00010  -0.00910  -0.00911   0.01826
           A6          -0.00030   0.00010  -0.00962  -0.00963   0.01930
           A7           0.00078  -0.00020   0.01872   0.01874  -0.03756
           D1          -0.00038   0.00000  -0.00013  -0.00013   0.00026
           D2           0.00038   0.00000   0.00013   0.00013  -0.00026
           D3           0.00000   0.00000   0.00000   0.00000   0.00000
           D4           0.00000   0.00000   0.00000   0.00000   0.00000
           D5          -0.00024   0.00000   0.00013   0.00013  -0.00026
           D6           0.00000   0.00000   0.00000   0.00000   0.00000
                          A5        A6        A7        D1        D2
           A5           0.15322
           A6          -0.00702   0.15274
           A7           0.01380   0.01429   0.13191
           D1          -0.00034  -0.00037   0.00071   0.00231
           D2           0.00034   0.00037  -0.00071  -0.00001   0.00231
           D3           0.00000   0.00000   0.00000   0.00000   0.00000
           D4           0.00000   0.00000   0.00000   0.00000   0.00000
           D5          -0.00006  -0.00008   0.00014   0.00002  -0.00002
           D6           0.00000   0.00000   0.00000   0.00000   0.00000
                          D3        D4        D5        D6
           D3           0.03612
           D4           0.00000   0.03612
           D5           0.00000   0.00000   0.01691
           D6           0.00000   0.00000   0.00000   0.01690
 ITU=  1  0
 Use linear search instead of GDIIS.
 Linear search step of   0.600 exceeds DXMaxT=   0.505 but not scaled.
 Quartic linear search produced a step of  2.00000.
 Iteration  1 RMS(Cart)=  0.11170411 RMS(Int)=  0.04137732
 Iteration  2 RMS(Cart)=  0.04305136 RMS(Int)=  0.00239698
 Iteration  3 RMS(Cart)=  0.00123222 RMS(Int)=  0.00202948
 Iteration  4 RMS(Cart)=  0.00000062 RMS(Int)=  0.00202948
 Iteration  1 RMS(Cart)=  0.00000000 RMS(Int)=  0.00000000
 ClnCor:  largest displacement from symmetrization is 2.58D-04 for atom     7.
 Variable       Old X    -DE/DX   Delta X   Delta X   Delta X     New X
                                 (Linear)    (Quad)   (Total)
    R1        7.34197   0.00454   0.00000   0.00000   0.00000   7.34197
    R2        3.58498   0.00046   0.04546   0.00000   0.04546   3.63043
    R3        1.81845   0.00913   0.04641   0.00000   0.04647   1.86492
    R4        1.81845   0.00913   0.04641   0.00000   0.04647   1.86492
    R5        1.81263   0.00621   0.03479   0.00000   0.03479   1.84742
    R6        1.81115   0.00603   0.03182   0.00000   0.03182   1.84297
    A1        2.44346   0.00239   0.00000   0.00000   0.00000   2.44346
    A2        1.98641   0.01822   0.15154   0.00000   0.15124   2.13765
    A3        1.98641   0.01823   0.15154   0.00000   0.15124   2.13765
    A4        2.31023  -0.03647  -0.30337   0.00000  -0.30364   2.00660
    A5        2.00199   0.01821   0.18271   0.00000   0.18271   2.18470
    A6        2.00784   0.01920   0.19442   0.00000   0.19442   2.20226
    A7        2.27336  -0.03741  -0.37713   0.00000  -0.37713   1.89623
    D1        1.57870   0.00076   0.01581   0.00000   0.02079   1.59949
    D2       -1.57870  -0.00076  -0.01581   0.00000  -0.02079  -1.59949
    D3        3.14159   0.00000   0.00000   0.00000   0.00000   3.14159
    D4        0.00000   0.00000   0.00000   0.00000   0.00000   0.00000
    D5        3.12201  -0.00106  -0.03916   0.00000  -0.03382   3.08819
    D6        3.14159   0.00000   0.00000   0.00000   0.00000   3.14159
         Item               Value     Threshold  Converged?
 Maximum Force            0.037412     0.000450     NO 
 RMS     Force            0.015975     0.000300     NO 
 Maximum Displacement     0.389392     0.001800     NO 
 RMS     Displacement     0.150584     0.001200     NO 
 Predicted change in Energy=-2.738158D-02
 GradGradGradGradGradGradGradGradGradGradGradGradGradGradGradGradGradGrad

                          Input orientation:                          
 ---------------------------------------------------------------------
 Center     Atomic      Atomic             Coordinates (Angstroms)
 Number     Number       Type             X           Y           Z
 ---------------------------------------------------------------------
      1         29           0       -0.058331    0.000000    0.013377
      2          8           0       -0.021224    0.000000    3.898402
      3          8           0        1.162443    0.000000   -1.470030
      4          1           0        0.903269    0.000000   -2.412664
      5          1           0        2.136109    0.000000   -1.414356
      6          1           0       -0.040049    0.832178    4.428536
      7          1           0       -0.040049   -0.832178    4.428536
 ---------------------------------------------------------------------
                    Distance matrix (angstroms):
                    1          2          3          4          5
     1  Cu   0.000000
     2  O    3.885203   0.000000
     3  O    1.921142   5.497376   0.000000
     4  H    2.609665   6.378421   0.977615   0.000000
     5  H    2.618011   5.734064   0.975256   1.586352   0.000000
     6  H    4.492937   0.986872   6.077137   6.955889   6.290275
     7  H    4.492937   0.986872   6.077137   6.955889   6.290275
                    6          7
     6  H    0.000000
     7  H    1.664356   0.000000
 Stoichiometry    CuH4O2(2+,2)
 Framework group  CS[SG(CuH2O2),X(H2)]
 Deg. of freedom    10
 Full point group                 CS      NOp   2
 Largest Abelian subgroup         CS      NOp   2
 Largest concise Abelian subgroup CS      NOp   2
                         Standard orientation:                         
 ---------------------------------------------------------------------
 Center     Atomic      Atomic             Coordinates (Angstroms)
 Number     Number       Type             X           Y           Z
 ---------------------------------------------------------------------
      1         29           0        0.000000    0.562927    0.000000
      2          8           0       -1.834471   -2.861912    0.000000
      3          8           0        1.783443    1.277150    0.000000
      4          1           0        2.009156    2.228351    0.000000
      5          1           0        2.610552    0.760415    0.000000
      6          1           0       -2.105744   -3.317770    0.832178
      7          1           0       -2.105744   -3.317770   -0.832178
 ---------------------------------------------------------------------
 Rotational constants (GHZ):     26.1641966      1.6174755      1.5362317
 Standard basis: 6-311G(d) (5D, 7F)
 There are    74 symmetry adapted cartesian basis functions of A'  symmetry.
 There are    28 symmetry adapted cartesian basis functions of A"  symmetry.
 There are    67 symmetry adapted basis functions of A'  symmetry.
 There are    27 symmetry adapted basis functions of A"  symmetry.
    94 basis functions,   165 primitive gaussians,   102 cartesian basis functions
    24 alpha electrons       23 beta electrons
       nuclear repulsion energy       141.2553320668 Hartrees.
 NAtoms=    7 NActive=    7 NUniq=    6 SFac= 1.36D+00 NAtFMM=   60 NAOKFM=F Big=F
 Integral buffers will be    131072 words long.
 Raffenetti 2 integral format.
 Two-electron integral symmetry is turned on.
 One-electron integrals computed using PRISM.
 NBasis=    94 RedAO= T EigKep=  1.33D-02  NBF=    67    27
 NBsUse=    94 1.00D-06 EigRej= -1.00D+00 NBFU=    67    27
 Initial guess from the checkpoint file:  "pescuh2o2.chk"
 B after Tr=     0.000000    0.000000    0.000000
         Rot=    0.999972    0.000000    0.000000    0.007490 Ang=   0.86 deg.
 Initial guess orbital symmetries:
 Alpha Orbitals:
       Occupied  (A') (A') (A') (A") (A') (A') (A') (A') (A') (A")
                 (A') (A') (A') (A') (A") (A') (A") (A') (A') (A')
                 (A') (A") (A') (A")
       Virtual   (A') (A') (A') (A') (A') (A') (A') (A') (A') (A')
                 (A') (A') (A') (A') (A') (A') (A') (A') (A') (A')
                 (A') (A') (A') (A') (A') (A') (A') (A') (A') (A')
                 (A') (A') (A') (A') (A') (A') (A') (A') (A') (A')
                 (A') (A') (A') (A') (A') (A') (A') (A') (A') (A")
                 (A") (A") (A") (A") (A") (A") (A") (A") (A") (A")
                 (A") (A") (A") (A") (A") (A") (A") (A") (A") (A")
 Beta  Orbitals:
       Occupied  (A') (A') (A') (A') (A") (A') (A') (A') (A') (A')
                 (A") (A') (A') (A') (A") (A') (A") (A') (A') (A")
                 (A') (A") (A')
       Virtual   (A') (A') (A') (A') (A') (A') (A') (A') (A') (A')
                 (A') (A') (A') (A') (A') (A') (A') (A') (A') (A')
                 (A') (A') (A') (A') (A') (A') (A') (A') (A') (A')
                 (A') (A') (A') (A') (A') (A') (A') (A') (A') (A')
                 (A') (A') (A') (A') (A') (A') (A') (A') (A') (A')
                 (A") (A") (A") (A") (A") (A") (A") (A") (A") (A")
                 (A") (A") (A") (A") (A") (A") (A") (A") (A") (A")
                 (A")
 Initial guess <Sx>= 0.0000 <Sy>= 0.0000 <Sz>= 0.5000 <S**2>= 0.7623 S= 0.5061
 ExpMin= 4.08D-02 ExpMax= 3.37D+05 ExpMxC= 1.14D+04 IAcc=2 IRadAn=         4 AccDes= 0.00D+00
 Harris functional with IExCor=  402 and IRadAn=       4 diagonalized for initial guess.
 HarFok:  IExCor=  402 AccDes= 0.00D+00 IRadAn=         4 IDoV= 1 UseB2=F ITyADJ=14
 ICtDFT=  3500011 ScaDFX=  1.000000  1.000000  1.000000  1.000000
 FoFCou: FMM=F IPFlag=           0 FMFlag=      100000 FMFlg1=           0
         NFxFlg=           0 DoJE=T BraDBF=F KetDBF=T FulRan=T
         wScrn=  0.000000 ICntrl=     500 IOpCl=  0 I1Cent=   200000004 NGrid=           0
         NMat0=    1 NMatS0=      1 NMatT0=    0 NMatD0=    1 NMtDS0=    0 NMtDT0=    0
 Petite list used in FoFCou.
 Keep R1 and R2 ints in memory in symmetry-blocked form, NReq=15545797.
 Requested convergence on RMS density matrix=1.00D-08 within  64 cycles.
 Requested convergence on MAX density matrix=1.00D-06.
 Requested convergence on             energy=1.00D-06.
 No special actions if energy rises.
 SCF Done:  E(UB3LYP) =  -1792.54522006     A.U. after   20 cycles
            NFock= 20  Conv=0.23D-08     -V/T= 2.0007
 <Sx>= 0.0000 <Sy>= 0.0000 <Sz>= 0.5000 <S**2>= 0.7609 S= 0.5054
 <L.S>= 0.000000000000E+00
 Annihilation of the first spin contaminant:
 S**2 before annihilation     0.7609,   after     0.7500
 QCSCF skips out because SCF is already converged.
 Calling FoFJK, ICntrl=      2127 FMM=F ISym2X=1 I1Cent= 0 IOpClX= 1 NMat=1 NMatS=1 NMatT=0.
 ***** Axes restored to original set *****
 -------------------------------------------------------------------
 Center     Atomic                   Forces (Hartrees/Bohr)
 Number     Number              X              Y              Z
 -------------------------------------------------------------------
      1       29           0.006141244    0.000000000   -0.010751047
      2        8           0.001251674    0.000000000   -0.007662696
      3        8          -0.001726880    0.000000000   -0.000651780
      4        1           0.000927407    0.000000000    0.006805898
      5        1          -0.005336027    0.000000000    0.000386533
      6        1          -0.000628709   -0.013399205    0.005936546
      7        1          -0.000628709    0.013399205    0.005936546
 -------------------------------------------------------------------
 Cartesian Forces:  Max     0.013399205 RMS     0.005868181

 GradGradGradGradGradGradGradGradGradGradGradGradGradGradGradGradGradGrad
 Berny optimization.
 Using GEDIIS/GDIIS optimizer.
 FormGI is forming the generalized inverse of G from B-inverse, IUseBI=4.
 Internal  Forces:  Max     0.015178867 RMS     0.005868523
 Search for a local minimum.
 Step number   3 out of a maximum of  100 on scan point     1 out of    26
 All quantities printed in internal units (Hartrees-Bohrs-Radians)
 Mixed Optimization -- RFO/linear search
 Update second derivatives using D2CorX and points    2    3
 The second derivative matrix:
                          R1        R2        R3        R4        R5
           R1           0.00858
           R2           0.00010   0.19133
           R3           0.00018   0.00087   0.57355
           R4           0.00018   0.00087  -0.00326   0.57355
           R5           0.00013   0.00069  -0.00237  -0.00237   0.57510
           R6           0.00012   0.00047  -0.00247  -0.00247  -0.00180
           A1           0.00000   0.00009   0.00016   0.00016   0.00012
           A2           0.00011  -0.00053  -0.00535  -0.00535  -0.00397
           A3           0.00011  -0.00053  -0.00536  -0.00536  -0.00397
           A4          -0.00022   0.00114   0.01086   0.01086   0.00806
           A5           0.00019   0.00097  -0.00350  -0.00350  -0.00255
           A6           0.00020   0.00089  -0.00398  -0.00398  -0.00291
           A7          -0.00039  -0.00187   0.00748   0.00748   0.00546
           D1           0.00000   0.00003   0.00005   0.00005   0.00004
           D2           0.00000  -0.00003  -0.00005  -0.00005  -0.00004
           D3           0.00000   0.00000   0.00000   0.00000   0.00000
           D4           0.00000   0.00000   0.00000   0.00000   0.00000
           D5          -0.00001  -0.00011  -0.00008  -0.00008  -0.00006
           D6           0.00000   0.00000   0.00000   0.00000   0.00000
                          R6        A1        A2        A3        A4
           R6           0.57497
           A1           0.00011   0.25000
           A2          -0.00382   0.00010   0.15360
           A3          -0.00382   0.00010  -0.00640   0.15359
           A4           0.00775  -0.00020   0.01285   0.01286   0.13419
           A5          -0.00266   0.00018  -0.00585  -0.00585   0.01181
           A6          -0.00300   0.00018  -0.00638  -0.00639   0.01289
           A7           0.00567  -0.00036   0.01223   0.01224  -0.02469
           D1           0.00003   0.00000   0.00003   0.00003  -0.00006
           D2          -0.00003   0.00000  -0.00003  -0.00003   0.00006
           D3           0.00000   0.00000   0.00000   0.00000   0.00000
           D4           0.00000   0.00000   0.00000   0.00000   0.00000
[...]
           A7         108.70597 108.60920 108.53198 108.44759 108.35405
           D1         -80.78344 -81.46246 -82.28427 -83.00223 -83.48915
           D2          80.91280  81.45475  82.22920  82.93933  83.45323
           D3          83.01226  82.72489  82.66946  82.92295  83.22465
           D4         -83.10073 -82.86908 -82.76716 -82.79544 -83.23241
           D5         164.23452 165.26199 166.63488 167.87782 168.76493
           D6        -168.03199-167.59065-167.46568-167.72355-168.37778
                          21        22        23        24        25
     Eigenvalues --  **************************************************
           R1           1.88520   1.78520   1.68520   1.58520   1.48520
           R2           1.85451   1.85485   1.85472   1.85426   1.85395
           R3           0.97712   0.97888   0.98124   0.98459   0.98936
           R4           0.97712   0.97888   0.98124   0.98459   0.98936
           R5           0.97759   0.97750   0.97726   0.97698   0.97663
           R6           0.97759   0.97751   0.97726   0.97698   0.97663
           A1         140.00000 140.00000 140.00000 140.00000 140.00000
           A2         125.38735 125.60788 126.03702 126.51898 127.17507
           A3         125.35473 125.66309 125.99145 126.52187 127.17141
           A4         108.34432 107.89277 107.20838 106.23457 104.89960
           A5         125.39901 125.53355 125.61348 125.63960 125.64516
           A6         125.40143 125.53204 125.60924 125.63554 125.64484
           A7         108.25449 108.19032 108.17428 108.20106 108.24766
           D1         -83.86622 -84.09855 -84.40005 -84.41598 -84.24876
           D2          83.90206  84.14507  84.29398  84.46687  84.27514
           D3          83.83688  84.39450  84.98666  85.31505  85.62825
           D4         -83.71447 -84.54040 -85.04304 -85.39053 -85.64046
           D5         169.51105 169.98228 170.44135 170.71254 170.55779
           D6        -169.33766-170.53749-171.48009-172.05762-172.53665
                          26
     Eigenvalues --  **********
           R1           1.38520
           R2           1.85494
           R3           0.99633
           R4           0.99633
           R5           0.97632
           R6           0.97632
           A1         140.00000
           A2         128.02747
           A3         128.02980
           A4         103.10043
           A5         125.64368
           A6         125.64249
           A7         108.31029
           D1         -83.83935
           D2          83.83874
           D3          85.92311
           D4         -85.92161
           D5         170.06167
           D6        -173.02534
                          Input orientation:                          
 ---------------------------------------------------------------------
 Center     Atomic      Atomic             Coordinates (Angstroms)
 Number     Number       Type             X           Y           Z
 ---------------------------------------------------------------------
      1         29           0        0.682784    0.612783    1.268577
      2          8           0        0.264981    0.172096    2.513576
      3          8           0        0.944040   -0.029243   -0.451992
      4          1           0        0.260839   -0.088751   -1.146905
      5          1           0        1.753505   -0.465964   -0.779479
      6          1           0       -0.667817    0.085494    2.852788
      7          1           0        0.803849   -0.286415    3.215050
 ---------------------------------------------------------------------
                    Distance matrix (angstroms):
                    1          2          3          4          5
     1  Cu   0.000000
     2  O    1.385203   0.000000
     3  O    1.854941   3.048975   0.000000
     4  H    2.550439   3.669766   0.976325   0.000000
     5  H    2.550426   3.669746   0.976323   1.582827   0.000000
     6  H    2.147529   0.996331   3.678698   4.109782   4.400030
     7  H    2.147550   0.996331   3.678720   4.400066   4.109787
                    6          7
     6  H    0.000000
     7  H    1.560561   0.000000
 Stoichiometry    CuH4O2(2+,2)
 Framework group  C1[X(CuH4O2)]
 Deg. of freedom    15
 Full point group                 C1      NOp   1
 Largest Abelian subgroup         C1      NOp   1
 Largest concise Abelian subgroup C1      NOp   1
                         Standard orientation:                         
 ---------------------------------------------------------------------
 Center     Atomic      Atomic             Coordinates (Angstroms)
 Number     Number       Type             X           Y           Z
 ---------------------------------------------------------------------
      1         29           0       -0.108190    0.240228    0.000002
      2          8           0       -1.368075   -0.335513   -0.000001
      3          8           0        1.679801   -0.253632   -0.000002
      4          1           0        2.213193   -0.459474   -0.791413
      5          1           0        2.213171   -0.459501    0.791414
      6          1           0       -1.891320   -0.667221   -0.780297
      7          1           0       -1.891346   -0.667250    0.780264
 ---------------------------------------------------------------------
 Rotational constants (GHZ):     49.7840864      5.2991747      5.0265739

 **********************************************************************

            Population analysis using the SCF density.

 **********************************************************************

 Orbital symmetries:
 Alpha Orbitals:
       Occupied  (A) (A) (A) (A) (A) (A) (A) (A) (A) (A) (A) (A)
                 (A) (A) (A) (A) (A) (A) (A) (A) (A) (A) (A) (A)
       Virtual   (A) (A) (A) (A) (A) (A) (A) (A) (A) (A) (A) (A)
                 (A) (A) (A) (A) (A) (A) (A) (A) (A) (A) (A) (A)
                 (A) (A) (A) (A) (A) (A) (A) (A) (A) (A) (A) (A)
                 (A) (A) (A) (A) (A) (A) (A) (A) (A) (A) (A) (A)
                 (A) (A) (A) (A) (A) (A) (A) (A) (A) (A) (A) (A)
                 (A) (A) (A) (A) (A) (A) (A) (A) (A) (A)
 Beta  Orbitals:
       Occupied  (A) (A) (A) (A) (A) (A) (A) (A) (A) (A) (A) (A)
                 (A) (A) (A) (A) (A) (A) (A) (A) (A) (A) (A)
       Virtual   (A) (A) (A) (A) (A) (A) (A) (A) (A) (A) (A) (A)
                 (A) (A) (A) (A) (A) (A) (A) (A) (A) (A) (A) (A)
                 (A) (A) (A) (A) (A) (A) (A) (A) (A) (A) (A) (A)
                 (A) (A) (A) (A) (A) (A) (A) (A) (A) (A) (A) (A)
                 (A) (A) (A) (A) (A) (A) (A) (A) (A) (A) (A) (A)
                 (A) (A) (A) (A) (A) (A) (A) (A) (A) (A) (A)
 The electronic state is 2-A.
 Alpha  occ. eigenvalues -- -323.58725 -39.40971 -34.64284 -34.62930 -34.60917
 Alpha  occ. eigenvalues --  -19.71320 -19.62250  -4.94642  -3.48446  -3.43994
 Alpha  occ. eigenvalues --   -3.40014  -1.62069  -1.50397  -1.14343  -1.12779
 Alpha  occ. eigenvalues --   -1.03996  -1.02009  -0.95052  -0.89234  -0.89113
 Alpha  occ. eigenvalues --   -0.88202  -0.85216  -0.82109  -0.79754
 Alpha virt. eigenvalues --   -0.46056  -0.37564  -0.33540  -0.31611  -0.26995
 Alpha virt. eigenvalues --   -0.19848  -0.18453  -0.03819  -0.02910   0.01399
 Alpha virt. eigenvalues --    0.13985   0.22508   0.28990   0.30666   0.36394
 Alpha virt. eigenvalues --    0.39563   0.58431   0.67624   0.86356   0.89143
 Alpha virt. eigenvalues --    0.95300   0.97475   1.02776   1.11723   1.19544
 Alpha virt. eigenvalues --    1.51094   1.53991   1.59587   1.60189   1.63484
 Alpha virt. eigenvalues --    2.12385   2.15660   2.23407   2.26137   2.32842
 Alpha virt. eigenvalues --    2.50118   2.62279   2.65457   2.66778   2.92992
 Alpha virt. eigenvalues --    3.13953   3.38283   3.38578   3.38977   3.39933
 Alpha virt. eigenvalues --    3.53990   3.63286   3.70824   4.24005   4.27436
 Alpha virt. eigenvalues --    4.41769   4.47335   4.50978   5.32553   6.58528
 Alpha virt. eigenvalues --    6.58653   6.71996   6.75642   6.94332   8.87772
 Alpha virt. eigenvalues --    8.87887   9.52306  31.52867  42.25123  42.26093
 Alpha virt. eigenvalues --   42.71668  49.20388  49.24160 183.55493 978.82541
  Beta  occ. eigenvalues -- -323.58703 -39.38901 -34.61797 -34.60955 -34.60330
  Beta  occ. eigenvalues --  -19.70773 -19.61913  -4.90491  -3.41873  -3.38994
  Beta  occ. eigenvalues --   -3.38585  -1.60681  -1.49650  -1.12539  -1.12181
  Beta  occ. eigenvalues --   -1.01727  -0.98435  -0.93759  -0.87229  -0.86900
  Beta  occ. eigenvalues --   -0.86227  -0.81483  -0.79442
  Beta virt. eigenvalues --   -0.64104  -0.45485  -0.37282  -0.33357  -0.31362
  Beta virt. eigenvalues --   -0.26890  -0.19646  -0.18366  -0.03712  -0.02642
  Beta virt. eigenvalues --    0.01534   0.15448   0.23560   0.29293   0.31778
  Beta virt. eigenvalues --    0.36677   0.39790   0.59221   0.68146   0.87071
  Beta virt. eigenvalues --    0.90274   0.97007   1.00498   1.03341   1.13037
  Beta virt. eigenvalues --    1.20189   1.52966   1.54136   1.59820   1.60270
  Beta virt. eigenvalues --    1.63606   2.13853   2.17127   2.24924   2.26937
  Beta virt. eigenvalues --    2.33776   2.51532   2.63109   2.65984   2.67700
  Beta virt. eigenvalues --    2.93318   3.15851   3.39080   3.39387   3.41441
  Beta virt. eigenvalues --    3.42228   3.57176   3.65238   3.71924   4.25196
  Beta virt. eigenvalues --    4.29365   4.42331   4.47957   4.51265   5.34120
  Beta virt. eigenvalues --    6.60233   6.60317   6.77291   6.79621   6.95844
  Beta virt. eigenvalues --    8.88764   8.91032   9.55969  31.55609  42.26929
  Beta virt. eigenvalues --   42.27714  42.74794  49.20912  49.24525 183.56544
  Beta virt. eigenvalues --  978.82762
          Condensed to atoms (all electrons):
               1          2          3          4          5          6
     1  Cu  27.449269   0.034025   0.097860  -0.005773  -0.005773  -0.012901
     2  O    0.034025   8.385239  -0.002559   0.000286   0.000286   0.227006
     3  O    0.097860  -0.002559   8.312528   0.245636   0.245636   0.000450
     4  H   -0.005773   0.000286   0.245636   0.208851  -0.015177   0.000079
     5  H   -0.005773   0.000286   0.245636  -0.015177   0.208852  -0.000010
     6  H   -0.012901   0.227006   0.000450   0.000079  -0.000010   0.208631
     7  H   -0.012901   0.227007   0.000450  -0.000010   0.000079  -0.014697
               7
     1  Cu  -0.012901
     2  O    0.227007
     3  O    0.000450
     4  H   -0.000010
     5  H    0.000079
     6  H   -0.014697
     7  H    0.208628
          Atomic-Atomic Spin Densities.
               1          2          3          4          5          6
     1  Cu   0.769339  -0.068000  -0.020688   0.000496   0.000496   0.000674
     2  O   -0.068000   0.304371  -0.005877   0.000070   0.000070  -0.001880
     3  O   -0.020688  -0.005877   0.132689  -0.001244  -0.001244  -0.000053
     4  H    0.000496   0.000070  -0.001244  -0.001269   0.000325  -0.000003
     5  H    0.000496   0.000070  -0.001244   0.000325  -0.001269   0.000000
     6  H    0.000674  -0.001880  -0.000053  -0.000003   0.000000  -0.004506
     7  H    0.000674  -0.001880  -0.000053   0.000000  -0.000003   0.000696
               7
     1  Cu   0.000674
     2  O   -0.001880
     3  O   -0.000053
     4  H    0.000000
     5  H   -0.000003
     6  H    0.000696
     7  H   -0.004505
 Mulliken charges and spin densities:
               1          2
     1  Cu   1.456194   0.682991
     2  O   -0.871290   0.226874
     3  O   -0.900002   0.103529
     4  H    0.566107  -0.001625
     5  H    0.566106  -0.001625
     6  H    0.591441  -0.005072
     7  H    0.591444  -0.005072
 Sum of Mulliken charges =   2.00000   1.00000
 Mulliken charges and spin densities with hydrogens summed into heavy atoms:
               1          2
     1  Cu   1.456194   0.682991
     2  O    0.311595   0.216730
     3  O    0.232211   0.100280
 Electronic spatial extent (au):  <R**2>=            239.7499
 Charge=              2.0000 electrons
 Dipole moment (field-independent basis, Debye):
    X=             -0.6870    Y=             -2.1461    Z=             -0.0001  Tot=              2.2534
 Quadrupole moment (field-independent basis, Debye-Ang):
   XX=              6.6766   YY=            -18.3016   ZZ=            -14.4472
   XY=              1.4224   XZ=              0.0000   YZ=             -0.0001
 Traceless Quadrupole moment (field-independent basis, Debye-Ang):
   XX=             15.3673   YY=             -9.6109   ZZ=             -5.7565
   XY=              1.4224   XZ=              0.0000   YZ=             -0.0001
 Octapole moment (field-independent basis, Debye-Ang**2):
  XXX=              7.7501  YYY=              4.4721  ZZZ=             -0.0001  XYY=             -3.6008
  XXY=            -18.6871  XXZ=             -0.0003  XZZ=             -0.0875  YZZ=             -2.0630
  YYZ=              0.0001  XYZ=             -0.0001
 Hexadecapole moment (field-independent basis, Debye-Ang**3):
 XXXX=            -47.2176 YYYY=            -23.8294 ZZZZ=            -12.3178 XXXY=             -0.5940
 XXXZ=             -0.0008 YYYX=              2.2134 YYYZ=             -0.0001 ZZZX=              0.0002
 ZZZY=              0.0000 XXYY=            -26.1797 XXZZ=             -6.9997 YYZZ=             -4.6800
 XXYZ=             -0.0004 YYXZ=              0.0000 ZZXY=              0.8956
 N-N= 2.151980437068D+02 E-N=-4.690332880021D+03  KE= 1.792505768058D+03
                          Isotropic Fermi Contact Couplings
        Atom                 a.u.       MegaHertz       Gauss      10(-4) cm-1
     1  Cu(63)            -0.00072      -0.85981      -0.30680      -0.28680
     2  O(17)              0.06213     -37.66573     -13.44007     -12.56394
     3  O(17)              0.06741     -40.86556     -14.58185     -13.63128
     4  H(1)              -0.00053      -2.35456      -0.84017      -0.78540
     5  H(1)              -0.00053      -2.35525      -0.84041      -0.78563
     6  H(1)              -0.00185      -8.26531      -2.94927      -2.75701
     7  H(1)              -0.00185      -8.26407      -2.94882      -2.75660
 --------------------------------------------------------
       Center         ----  Spin Dipole Couplings  ----
                      3XX-RR        3YY-RR        3ZZ-RR
 --------------------------------------------------------
     1   Atom        1.831695      1.727200     -3.558895
     2   Atom        0.425678      0.017531     -0.443209
     3   Atom        0.217185      0.039397     -0.256582
     4   Atom        0.008141     -0.014097      0.005956
     5   Atom        0.008140     -0.014096      0.005956
     6   Atom        0.006994     -0.016991      0.009996
     7   Atom        0.006995     -0.016989      0.009993
 --------------------------------------------------------
                        XY            XZ            YZ
 --------------------------------------------------------
     1   Atom        1.178480     -0.000014      0.000033
     2   Atom       -0.557892      0.000002     -0.000001
     3   Atom        0.353443      0.000010      0.000008
     4   Atom       -0.005322     -0.019193      0.009603
     5   Atom       -0.005323      0.019193     -0.009604
     6   Atom        0.013030      0.028968      0.023998
     7   Atom        0.013031     -0.028968     -0.023998
 --------------------------------------------------------


 ---------------------------------------------------------------------------------
              Anisotropic Spin Dipole Couplings in Principal Axis System
 ---------------------------------------------------------------------------------

       Atom             a.u.   MegaHertz   Gauss  10(-4) cm-1        Axes

              Baa    -3.5589  -503.874  -179.795  -168.074  0.0000  0.0000  1.0000
     1 Cu(63) Bbb     0.5998    84.922    30.302    28.327 -0.6913  0.7226  0.0000
              Bcc     2.9591   418.952   149.493   139.747  0.7226  0.6913  0.0000
 
              Baa    -0.4432    32.070    11.443    10.697  0.0000  0.0000  1.0000
     2 O(17)  Bbb    -0.3724    26.950     9.616     8.989  0.5729  0.8196  0.0000
              Bcc     0.8156   -59.020   -21.060   -19.687  0.8196 -0.5729  0.0000
 
              Baa    -0.2566    18.566     6.625     6.193  0.0000  0.0000  1.0000
     3 O(17)  Bbb    -0.2362    17.088     6.098     5.700 -0.6149  0.7886  0.0000
              Bcc     0.4927   -35.654   -12.722   -11.893  0.7886  0.6149  0.0000
 
              Baa    -0.0183    -9.788    -3.492    -3.265 -0.1722  0.8620 -0.4767
     4 H(1)   Bbb    -0.0105    -5.600    -1.998    -1.868  0.7005  0.4474  0.5560
              Bcc     0.0288    15.387     5.491     5.133  0.6926 -0.2381 -0.6809
 
              Baa    -0.0183    -9.788    -3.492    -3.265 -0.1722  0.8620  0.4767
     5 H(1)   Bbb    -0.0105    -5.600    -1.998    -1.868  0.7005  0.4474 -0.5560
              Bcc     0.0288    15.387     5.491     5.133  0.6926 -0.2382  0.6809
 
              Baa    -0.0316   -16.850    -6.013    -5.621  0.1609  0.8021 -0.5751
     6 H(1)   Bbb    -0.0167    -8.909    -3.179    -2.972  0.7769 -0.4623 -0.4275
              Bcc     0.0483    25.760     9.192     8.592  0.6087  0.3780  0.6975
 
              Baa    -0.0316   -16.850    -6.013    -5.621  0.1609  0.8021  0.5751
     7 H(1)   Bbb    -0.0167    -8.909    -3.179    -2.972  0.7769 -0.4623  0.4274
              Bcc     0.0483    25.760     9.192     8.593 -0.6087 -0.3780  0.6975
 

 ---------------------------------------------------------------------------------

 B after Tr=     1.652785   -1.712190   -0.659704
         Rot=    0.708009    0.178579    0.011410   -0.683156 Ang=  89.85 deg.
 Atom   5 needs variable   3=   0.9763227041 but is    0.9763248250
 Input z-matrix variables are not compatible with final structure.
 1\1\GINC-MILLENNIUM-FALCON\Scan\UB3LYP\6-311G(d)\Cu1H4O2(2+,2)\JAKE\17
 -Jun-2016\0\\#opt=(modredundant,maxcycles=350) B3LYP/6-311G* scf=xqc\\
 cu2(h20)2\\2,2\Cu,-0.5816130272,1.1482655089,0.9470023333\O,-0.9994160
 34,0.7075789498,2.1920016728\O,-0.320356191,0.5062401127,-0.773566059\
 H,-1.0035574089,0.4467313074,-1.4684796952\H,0.4891081017,0.069518748,
 -1.1010535109\H,-1.9322135338,0.6209766852,2.5312135117\H,-0.460547874
 1,0.2490681563,2.8934754152\\Version=EM64L-G09RevD.01\State=2-A\HF=-17
 92.5474329,-1792.5467379,-1792.5460808,-1792.545503,-1792.5450399,-179
 2.5447201,-1792.5445839,-1792.5446822,-1792.5450677,-1792.5457914,-179
 2.5469268,-1792.5485463,-1792.5507265,-1792.5629619,-1792.5684245,-179
 2.574692,-1792.581578,-1792.5887197,-1792.595562,-1792.6012619,-1792.6
 04532,-1792.6033117,-1792.5940653,-1792.5713782,-1792.5267161,-1792.44
 67717\S2=0.761752,0.76166,0.76156,0.761453,0.761312,0.761089,0.760895,
 0.760589,0.760207,0.759722,0.759107,0.758343,0.757379,0.75601,0.75495,
 0.753911,0.753013,0.75234,0.751898,0.751642,0.751521,0.751494,0.751521
 ,0.751573,0.751628,0.751667\S2-1=0.,0.,0.,0.,0.,0.,0.,0.,0.,0.,0.,0.,0
 .,0.,0.,0.,0.,0.,0.,0.,0.,0.,0.,0.,0.,0.\S2A=0.750019,0.750018,0.75001
 7,0.750017,0.750016,0.750015,0.750014,0.750013,0.750012,0.750011,0.750
 009,0.750008,0.750006,0.750007,0.750005,0.750004,0.750003,0.750003,0.7
 50002,0.750002,0.750002,0.750002,0.750002,0.750002,0.750002,0.750002\R
 MSD=2.620e-09,9.854e-09,5.878e-09,8.714e-09,7.187e-09,2.258e-09,4.883e
 -09,9.175e-09,3.950e-09,5.761e-09,2.282e-09,6.451e-09,7.828e-09,4.999e
 -09,2.392e-09,5.647e-09,8.832e-10,4.165e-09,1.563e-09,7.162e-10,4.067e
 -09,1.257e-09,8.799e-09,3.320e-09,3.155e-09,4.960e-09\PG=C01 [X(Cu1H4O
 2)]\\@


 WHAT, THEN, IS TIME?  IF NO ONE ASKS ME, I KNOW WHAT IT IS.
 IF I WISH TO EXPLAIN WHAT IT IS TO HIM WHO ASKS ME, I DO NOT KNOW.
                                   -- ST. AUGUSTINE (FIFTH CENTURY)
 Job cpu time:       0 days  0 hours 43 minutes 49.2 seconds.
 File lengths (MBytes):  RWF=     10 Int=      0 D2E=      0 Chk=      3 Scr=      1
 Normal termination of Gaussian 09 at Fri Jun 17 15:16:42 2016.
