 Entering Gaussian System, Link 0=g09
 Input=2coord_b3lyp_A_F_160.inp
 Output=2coord_b3lyp_A_F_160.log
 Initial command:
 /usr/local/g09/l1.exe "./Gau-17901.inp" -scrdir="./"
 Entering Link 1 = /usr/local/g09/l1.exe PID=     17903.
  
 Copyright (c) 1988,1990,1992,1993,1995,1998,2003,2009,2013,
            Gaussian, Inc.  All Rights Reserved.
  
 This is part of the Gaussian(R) 09 program.  It is based on
 the Gaussian(R) 03 system (copyright 2003, Gaussian, Inc.),
 the Gaussian(R) 98 system (copyright 1998, Gaussian, Inc.),
 the Gaussian(R) 94 system (copyright 1995, Gaussian, Inc.),
 the Gaussian 92(TM) system (copyright 1992, Gaussian, Inc.),
 the Gaussian 90(TM) system (copyright 1990, Gaussian, Inc.),
 the Gaussian 88(TM) system (copyright 1988, Gaussian, Inc.),
 the Gaussian 86(TM) system (copyright 1986, Carnegie Mellon
 University), and the Gaussian 82(TM) system (copyright 1983,
 Carnegie Mellon University). Gaussian is a federally registered
 trademark of Gaussian, Inc.
  
 This software contains proprietary and confidential information,
 including trade secrets, belonging to Gaussian, Inc.
  
 This software is provided under written license and may be
 used, copied, transmitted, or stored only in accord with that
 written license.
  
 The following legend is applicable only to US Government
 contracts under FAR:
  
                    RESTRICTED RIGHTS LEGEND
  
 Use, reproduction and disclosure by the US Government is
 subject to restrictions as set forth in subparagraphs (a)
 and (c) of the Commercial Computer Software - Restricted
 Rights clause in FAR 52.227-19.
  
 Gaussian, Inc.
 340 Quinnipiac St., Bldg. 40, Wallingford CT 06492
  
  
 ---------------------------------------------------------------
 Warning -- This program may not be used in any manner that
 competes with the business of Gaussian, Inc. or will provide
 assistance to any competitor of Gaussian, Inc.  The licensee
 of this program is prohibited from giving any competitor of
 Gaussian, Inc. access to this program.  By using this program,
 the user acknowledges that Gaussian, Inc. is engaged in the
 business of creating and licensing software in the field of
 computational chemistry and represents and warrants to the
 licensee that it is not a competitor of Gaussian, Inc. and that
 it will not use this program in any manner prohibited above.
 ---------------------------------------------------------------
  

 Cite this work as:
 Gaussian 09, Revision D.01,
 M. J. Frisch, G. W. Trucks, H. B. Schlegel, G. E. Scuseria, 
 M. A. Robb, J. R. Cheeseman, G. Scalmani, V. Barone, B. Mennucci, 
 G. A. Petersson, H. Nakatsuji, M. Caricato, X. Li, H. P. Hratchian, 
 A. F. Izmaylov, J. Bloino, G. Zheng, J. L. Sonnenberg, M. Hada, 
 M. Ehara, K. Toyota, R. Fukuda, J. Hasegawa, M. Ishida, T. Nakajima, 
 Y. Honda, O. Kitao, H. Nakai, T. Vreven, J. A. Montgomery, Jr., 
 J. E. Peralta, F. Ogliaro, M. Bearpark, J. J. Heyd, E. Brothers, 
 K. N. Kudin, V. N. Staroverov, T. Keith, R. Kobayashi, J. Normand, 
 K. Raghavachari, A. Rendell, J. C. Burant, S. S. Iyengar, J. Tomasi, 
 M. Cossi, N. Rega, J. M. Millam, M. Klene, J. E. Knox, J. B. Cross, 
 V. Bakken, C. Adamo, J. Jaramillo, R. Gomperts, R. E. Stratmann, 
 O. Yazyev, A. J. Austin, R. Cammi, C. Pomelli, J. W. Ochterski, 
 R. L. Martin, K. Morokuma, V. G. Zakrzewski, G. A. Voth, 
 P. Salvador, J. J. Dannenberg, S. Dapprich, A. D. Daniels, 
 O. Farkas, J. B. Foresman, J. V. Ortiz, J. Cioslowski, 
 and D. J. Fox, Gaussian, Inc., Wallingford CT, 2013.
 
 ******************************************
 Gaussian 09:  EM64L-G09RevD.01 24-Apr-2013
                18-Jun-2016 
 ******************************************
 %mem=2GB
 %nprocshared=1
 Will use up to    1 processors via shared memory.
 %chk=pescuh2o2.chk
 -------------------------------------------------------
 #opt=(modredundant,maxcycles=350) B3LYP/6-311G* scf=xqc
 -------------------------------------------------------
 1/6=350,14=-1,18=120,19=15,26=3,38=1/1,3;
 2/9=110,12=2,17=6,18=5,40=1/2;
 3/5=4,6=6,7=1,11=2,16=1,25=1,30=1,71=1,74=-5/1,2,3;
 4//1;
 5/5=2,8=3,13=1,38=5/2,8;
 6/7=2,8=2,9=2,10=2,28=1/1;
 7//1,2,3,16;
 1/6=350,14=-1,18=20,19=15,26=3/3(2);
 2/9=110/2;
 99//99;
 2/9=110/2;
 3/5=4,6=6,7=1,11=2,16=1,25=1,30=1,71=1,74=-5/1,2,3;
 4/5=5,16=3,69=1/1;
 5/5=2,8=3,13=1,38=5/2,8;
 7//1,2,3,16;
 1/6=350,14=-1,18=20,19=15,26=3/3(-5);
 2/9=110/2;
 6/7=2,8=2,9=2,10=2,19=2,28=1/1;
 99/9=1/99;
 ---------
 cu2(h20)2
 ---------
 Symbolic Z-matrix:
 Charge =  2 Multiplicity = 2
 Cu
 O                    1    A
 O                    1    B        2    H
 H                    3    C        1    D        2    E        0
 H                    3    C        1    D        2    F        0
 H                    2    C        1    D        3    G        0
 H                    2    C        1    D        6    E        0
       Variables:
  A                     3.8852                   
  B                     1.88506                  
  C                     0.95                     
  D                   109.471                    
  E                   180.                       
  F                     0.                       
  G                    90.                       
  H                   160.                       
 
     4 tetrahedral angles replaced.
 Add virtual bond connecting atoms O2         and Cu1        Dist= 7.34D+00.
 The following ModRedundant input section has been read:
 A       2       1       3 F                                                   
 B       1       2 S  25 -0.100                                                
 

 GradGradGradGradGradGradGradGradGradGradGradGradGradGradGradGradGradGrad
 Berny optimization.
 Initialization pass.
                           ----------------------------
                           !    Initial Parameters    !
                           ! (Angstroms and Degrees)  !
 --------------------------                            --------------------------
 ! Name  Definition              Value          Derivative Info.                !
 --------------------------------------------------------------------------------
 ! R1    R(1,2)                  3.8852         Scan                            !
 ! R2    R(1,3)                  1.8851         estimate D2E/DX2                !
 ! R3    R(2,6)                  0.95           estimate D2E/DX2                !
 ! R4    R(2,7)                  0.95           estimate D2E/DX2                !
 ! R5    R(3,4)                  0.95           estimate D2E/DX2                !
 ! R6    R(3,5)                  0.95           estimate D2E/DX2                !
 ! A1    A(2,1,3)              160.0            Frozen                          !
 ! A2    A(1,2,6)              109.4712         estimate D2E/DX2                !
 ! A3    A(1,2,7)              109.4712         estimate D2E/DX2                !
 ! A4    A(6,2,7)              141.0576         estimate D2E/DX2                !
 ! A5    A(1,3,4)              109.4712         estimate D2E/DX2                !
 ! A6    A(1,3,5)              109.4712         estimate D2E/DX2                !
 ! A7    A(4,3,5)              141.0576         estimate D2E/DX2                !
 ! D1    D(3,1,2,6)             90.0            estimate D2E/DX2                !
 ! D2    D(3,1,2,7)            -90.0            estimate D2E/DX2                !
 ! D3    D(2,1,3,4)            180.0            estimate D2E/DX2                !
 ! D4    D(2,1,3,5)              0.0            estimate D2E/DX2                !
 ! D5    D(1,2,6,7)            180.0            estimate D2E/DX2                !
 ! D6    D(1,3,4,5)            180.0            estimate D2E/DX2                !
 --------------------------------------------------------------------------------
 Trust Radius=3.00D-01 FncErr=1.00D-07 GrdErr=1.00D-06
 Number of optimizations in scan=  26
 Number of steps in this run=    100 maximum allowed number of steps=    100.
 GradGradGradGradGradGradGradGradGradGradGradGradGradGradGradGradGradGrad

                          Input orientation:                          
 ---------------------------------------------------------------------
 Center     Atomic      Atomic             Coordinates (Angstroms)
 Number     Number       Type             X           Y           Z
 ---------------------------------------------------------------------
      1         29           0        0.000000    0.000000    0.000000
      2          8           0        0.000000    0.000000    3.885203
      3          8           0        0.644729    0.000000   -1.771378
      4          1           0       -0.088618    0.000000   -2.375284
      5          1           0        1.594688    0.000000   -1.762611
      6          1           0        0.000000    0.895669    4.201870
      7          1           0        0.000000   -0.895669    4.201870
 ---------------------------------------------------------------------
                    Distance matrix (angstroms):
                    1          2          3          4          5
     1  Cu   0.000000
     2  O    3.885203   0.000000
     3  O    1.885061   5.693205   0.000000
     4  H    2.376936   6.261114   0.950000   0.000000
     5  H    2.376936   5.868631   0.950000   1.791337   0.000000
     6  H    4.296269   0.950000   6.074338   6.638450   6.238612
     7  H    4.296269   0.950000   6.074338   6.638450   6.238612
                    6          7
     6  H    0.000000
     7  H    1.791337   0.000000
 Stoichiometry    CuH4O2(2+,2)
 Framework group  CS[SG(CuH2O2),X(H2)]
 Deg. of freedom    10
 Full point group                 CS      NOp   2
 Largest Abelian subgroup         CS      NOp   2
 Largest concise Abelian subgroup CS      NOp   2
                         Standard orientation:                         
 ---------------------------------------------------------------------
 Center     Atomic      Atomic             Coordinates (Angstroms)
 Number     Number       Type             X           Y           Z
 ---------------------------------------------------------------------
      1         29           0        0.000000    0.453066    0.000000
      2          8           0       -1.166232   -3.252971    0.000000
      3          8           0        1.146717    1.949226    0.000000
      4          1           0        0.628464    2.745414    0.000000
      5          1           0        2.050237    1.655711    0.000000
      6          1           0       -1.261287   -3.555034    0.895669
      7          1           0       -1.261287   -3.555034   -0.895669
 ---------------------------------------------------------------------
 Rotational constants (GHZ):     68.5647331      1.5548956      1.5353540
 Standard basis: 6-311G(d) (5D, 7F)
 There are    74 symmetry adapted cartesian basis functions of A'  symmetry.
 There are    28 symmetry adapted cartesian basis functions of A"  symmetry.
 There are    67 symmetry adapted basis functions of A'  symmetry.
 There are    27 symmetry adapted basis functions of A"  symmetry.
    94 basis functions,   165 primitive gaussians,   102 cartesian basis functions
    24 alpha electrons       23 beta electrons
       nuclear repulsion energy       144.2679347870 Hartrees.
 NAtoms=    7 NActive=    7 NUniq=    6 SFac= 1.36D+00 NAtFMM=   60 NAOKFM=F Big=F
 Integral buffers will be    131072 words long.
 Raffenetti 2 integral format.
 Two-electron integral symmetry is turned on.
 One-electron integrals computed using PRISM.
 NBasis=    94 RedAO= T EigKep=  1.33D-02  NBF=    67    27
 NBsUse=    94 1.00D-06 EigRej= -1.00D+00 NBFU=    67    27
 ExpMin= 4.08D-02 ExpMax= 3.37D+05 ExpMxC= 1.14D+04 IAcc=2 IRadAn=         4 AccDes= 0.00D+00
 Harris functional with IExCor=  402 and IRadAn=       4 diagonalized for initial guess.
 HarFok:  IExCor=  402 AccDes= 0.00D+00 IRadAn=         4 IDoV= 1 UseB2=F ITyADJ=14
 ICtDFT=  3500011 ScaDFX=  1.000000  1.000000  1.000000  1.000000
 FoFCou: FMM=F IPFlag=           0 FMFlag=      100000 FMFlg1=           0
         NFxFlg=           0 DoJE=T BraDBF=F KetDBF=T FulRan=T
         wScrn=  0.000000 ICntrl=     500 IOpCl=  0 I1Cent=   200000004 NGrid=           0
         NMat0=    1 NMatS0=      1 NMatT0=    0 NMatD0=    1 NMtDS0=    0 NMtDT0=    0
 Petite list used in FoFCou.
 Initial guess orbital symmetries:
 Alpha Orbitals:
       Occupied  (A') (A') (A') (A') (A") (A') (A') (A') (A') (A')
                 (A") (A') (A') (A') (A") (A') (A") (A') (A') (A')
                 (A') (A') (A") (A")
       Virtual   (A') (A') (A') (A') (A") (A') (A') (A') (A') (A")
                 (A") (A') (A') (A') (A') (A") (A') (A') (A") (A')
                 (A') (A") (A') (A") (A') (A') (A') (A') (A') (A")
                 (A") (A") (A") (A') (A') (A') (A') (A") (A') (A')
                 (A') (A') (A") (A') (A') (A") (A") (A') (A") (A')
                 (A') (A') (A") (A') (A") (A') (A") (A') (A') (A")
                 (A') (A') (A') (A") (A') (A') (A') (A') (A') (A')
 Beta  Orbitals:
       Occupied  (A') (A') (A') (A') (A") (A') (A') (A') (A') (A')
                 (A") (A') (A') (A') (A") (A') (A") (A') (A') (A')
                 (A') (A') (A")
       Virtual   (A") (A') (A') (A') (A') (A") (A') (A') (A') (A')
                 (A") (A") (A') (A') (A') (A') (A") (A') (A') (A")
                 (A') (A') (A") (A') (A") (A') (A') (A') (A') (A')
                 (A") (A") (A") (A") (A') (A') (A') (A') (A") (A')
                 (A') (A') (A') (A") (A') (A') (A") (A") (A') (A")
                 (A') (A') (A') (A") (A') (A") (A') (A") (A') (A')
                 (A") (A') (A') (A') (A") (A') (A') (A') (A') (A')
                 (A')
 The electronic state of the initial guess is 2-A".
 Initial guess <Sx>= 0.0000 <Sy>= 0.0000 <Sz>= 0.5000 <S**2>= 0.7500 S= 0.5000
 Keep R1 and R2 ints in memory in symmetry-blocked form, NReq=15545797.
 Requested convergence on RMS density matrix=1.00D-08 within  64 cycles.
 Requested convergence on MAX density matrix=1.00D-06.
 Requested convergence on             energy=1.00D-06.
 No special actions if energy rises.
 EnCoef did   100 forward-backward iterations
 EnCoef did   100 forward-backward iterations
 EnCoef did   100 forward-backward iterations
 EnCoef did   100 forward-backward iterations
 EnCoef did     9 forward-backward iterations
 EnCoef did    48 forward-backward iterations
 EnCoef did   100 forward-backward iterations
 EnCoef did   100 forward-backward iterations
 EnCoef did   100 forward-backward iterations
 EnCoef did   100 forward-backward iterations
 EnCoef did   100 forward-backward iterations
 Rare condition: small coef for last iteration:  0.106D-14
 EnCoef did   100 forward-backward iterations
 EnCoef did   100 forward-backward iterations
 Rare condition: small coef for last iteration: -0.421D-15
 EnCoef did   100 forward-backward iterations
 EnCoef did   100 forward-backward iterations
 EnCoef did   100 forward-backward iterations
 EnCoef did   100 forward-backward iterations
 EnCoef did   100 forward-backward iterations
 Rare condition: small coef for last iteration:  0.100D-14
 EnCoef did   100 forward-backward iterations
 EnCoef did   100 forward-backward iterations
 EnCoef did   100 forward-backward iterations
 Rare condition: small coef for last iteration: -0.110D-14
 EnCoef did   100 forward-backward iterations
 EnCoef did   100 forward-backward iterations
 EnCoef did   100 forward-backward iterations
 Rare condition: small coef for last iteration:  0.413D-15
 EnCoef did   100 forward-backward iterations
 EnCoef did   100 forward-backward iterations
 EnCoef did   100 forward-backward iterations
 Rare condition: small coef for last iteration:  0.000D+00
 EnCoef did   100 forward-backward iterations
 EnCoef did   100 forward-backward iterations
 EnCoef did   100 forward-backward iterations
 EnCoef did   100 forward-backward iterations
 EnCoef did   100 forward-backward iterations
 EnCoef did   100 forward-backward iterations
 EnCoef did   100 forward-backward iterations
 EnCoef did   100 forward-backward iterations
 EnCoef did   100 forward-backward iterations
 EnCoef did   100 forward-backward iterations
 EnCoef did    61 forward-backward iterations
 EnCoef did   100 forward-backward iterations
 EnCoef did     1 forward-backward iterations
 Rare condition: small coef for last iteration: -0.222D-15
 EnCoef did   100 forward-backward iterations
 EnCoef did   100 forward-backward iterations
 EnCoef did   100 forward-backward iterations
 EnCoef did   100 forward-backward iterations
 EnCoef did   100 forward-backward iterations
 EnCoef did   100 forward-backward iterations
 EnCoef did   100 forward-backward iterations
 EnCoef did   100 forward-backward iterations
 EnCoef did   100 forward-backward iterations
 EnCoef did    33 forward-backward iterations
 Rare condition: small coef for last iteration: -0.222D-15
 EnCoef did   100 forward-backward iterations
 EnCoef did   100 forward-backward iterations
 EnCoef did   100 forward-backward iterations
 >>>>>>>>>> Convergence criterion not met.
 SCF Done:  E(UB3LYP) =  -1792.39810111     A.U. after   65 cycles
            NFock= 64  Conv=0.22D-04     -V/T= 1.9988
 <Sx>= 0.0000 <Sy>= 0.0000 <Sz>= 0.5000 <S**2>= 0.7516 S= 0.5008
 <L.S>= 0.000000000000E+00
 Annihilation of the first spin contaminant:
 S**2 before annihilation     0.7516,   after     0.7500
 Keep R1 and R2 ints in memory in symmetry-blocked form, NReq=15602405.
 Gradient too large for Newton-Raphson -- use scaled steepest descent instead.
  Beta Gap=    -0.398 HL deriv= 1.49D-16 Rot set to   7.79D-01
     Minimum is close to point  2 DX=  1.05D-02 DF= -6.52D-05 DXR=  3.37D-02 DFR=  1.13D-03 which will be used.
 Gradient too large for Newton-Raphson -- use scaled steepest descent instead.
     Accept linear search using points  2 and  3.
 Gradient too large for Newton-Raphson -- use scaled steepest descent instead.
 Gradient too large for Newton-Raphson -- use scaled steepest descent instead.
 Gradient too large for Newton-Raphson -- use scaled steepest descent instead.
     Accept linear search using points  1 and  2.
 Gradient too large for Newton-Raphson -- use scaled steepest descent instead.
     Accept linear search using points  3 and  4.
 Gradient too large for Newton-Raphson -- use scaled steepest descent instead.
 Gradient too large for Newton-Raphson -- use scaled steepest descent instead.
     Accept linear search using points  3 and  4.
 Gradient too large for Newton-Raphson -- use scaled steepest descent instead.
     Minimum is close to point  3 DX=  7.05D-03 DF= -2.07D-06 DXR=  2.30D-02 DFR=  5.28D-04 which will be used.
 Gradient too large for Newton-Raphson -- use scaled steepest descent instead.
 Gradient too large for Newton-Raphson -- use scaled steepest descent instead.
     Minimum is close to point  3 DX= -1.16D-02 DF= -6.17D-06 DXR=  4.02D-02 DFR=  1.62D-03 which will be used.
 Gradient too large for Newton-Raphson -- use scaled steepest descent instead.
 Gradient too large for Newton-Raphson -- use scaled steepest descent instead.
     Accept linear search using points  1 and  2.
 Gradient too large for Newton-Raphson -- use scaled steepest descent instead.
 Gradient too large for Newton-Raphson -- use scaled steepest descent instead.
     Accept linear search using points  1 and  2.
 Gradient too large for Newton-Raphson -- use scaled steepest descent instead.
 LinEq1:  Iter=  0 NonCon=     1 RMS=1.43D-03 Max=8.18D-02 NDo=     1
 AX will form     1 AO Fock derivatives at one time.
 LinEq1:  Iter=  1 NonCon=     1 RMS=2.60D-03 Max=7.99D-02 NDo=     1
 LinEq1:  Iter=  2 NonCon=     1 RMS=6.20D-04 Max=1.76D-02 NDo=     1
 LinEq1:  Iter=  3 NonCon=     1 RMS=7.82D-04 Max=2.41D-02 NDo=     1
 LinEq1:  Iter=  4 NonCon=     1 RMS=7.28D-04 Max=1.58D-02 NDo=     1
 LinEq1:  Iter=  5 NonCon=     1 RMS=4.48D-04 Max=1.00D-02 NDo=     1
 LinEq1:  Iter=  6 NonCon=     1 RMS=4.62D-04 Max=1.54D-02 NDo=     1
 LinEq1:  Iter=  7 NonCon=     1 RMS=2.08D-04 Max=5.92D-03 NDo=     1
 LinEq1:  Iter=  8 NonCon=     1 RMS=5.92D-05 Max=1.02D-03 NDo=     1
 LinEq1:  Iter=  9 NonCon=     1 RMS=1.38D-05 Max=3.62D-04 NDo=     1
 LinEq1:  Iter= 10 NonCon=     1 RMS=3.39D-06 Max=7.87D-05 NDo=     1
 LinEq1:  Iter= 11 NonCon=     1 RMS=1.22D-06 Max=4.14D-05 NDo=     1
 LinEq1:  Iter= 12 NonCon=     1 RMS=4.02D-07 Max=1.50D-05 NDo=     1
 LinEq1:  Iter= 13 NonCon=     1 RMS=1.15D-07 Max=2.01D-06 NDo=     1
 LinEq1:  Iter= 14 NonCon=     1 RMS=3.16D-08 Max=4.31D-07 NDo=     1
 LinEq1:  Iter= 15 NonCon=     1 RMS=7.72D-09 Max=2.88D-07 NDo=     1
 LinEq1:  Iter= 16 NonCon=     1 RMS=2.42D-09 Max=8.15D-08 NDo=     1
 LinEq1:  Iter= 17 NonCon=     0 RMS=8.14D-10 Max=1.54D-08 NDo=     1
 Linear equations converged to 5.756D-09 5.756D-08 after    17 iterations.
     Accept linear search using points  1 and  2.
     Minimum is close to point  2 DX= -2.21D-02 DF= -2.37D-08 DXR=  2.26D-02 DFR=  5.18D-04 which will be used.
 LinEq1:  Iter=  0 NonCon=     1 RMS=5.03D-05 Max=2.87D-03 NDo=     1
 LinEq1:  Iter=  1 NonCon=     1 RMS=1.33D-04 Max=5.25D-03 NDo=     1
 LinEq1:  Iter=  2 NonCon=     1 RMS=3.01D-05 Max=8.39D-04 NDo=     1
 LinEq1:  Iter=  3 NonCon=     1 RMS=1.15D-05 Max=3.63D-04 NDo=     1
 LinEq1:  Iter=  4 NonCon=     1 RMS=7.85D-06 Max=9.94D-05 NDo=     1
 LinEq1:  Iter=  5 NonCon=     1 RMS=4.63D-06 Max=8.63D-05 NDo=     1
 LinEq1:  Iter=  6 NonCon=     1 RMS=3.18D-06 Max=1.32D-04 NDo=     1
 LinEq1:  Iter=  7 NonCon=     1 RMS=2.18D-06 Max=4.12D-05 NDo=     1
 LinEq1:  Iter=  8 NonCon=     1 RMS=8.45D-07 Max=3.57D-05 NDo=     1
 LinEq1:  Iter=  9 NonCon=     1 RMS=3.09D-07 Max=5.78D-06 NDo=     1
 LinEq1:  Iter= 10 NonCon=     1 RMS=8.68D-08 Max=1.91D-06 NDo=     1
 LinEq1:  Iter= 11 NonCon=     1 RMS=3.27D-08 Max=9.76D-07 NDo=     1
 LinEq1:  Iter= 12 NonCon=     1 RMS=1.25D-08 Max=2.24D-07 NDo=     1
 LinEq1:  Iter= 13 NonCon=     1 RMS=3.05D-09 Max=5.20D-08 NDo=     1
 LinEq1:  Iter= 14 NonCon=     0 RMS=6.84D-10 Max=1.30D-08 NDo=     1
 Linear equations converged to 1.938D-09 1.938D-08 after    14 iterations.
     Minimum is close to point  2 DX=  3.94D-02 DF= -6.34D-11 DXR=  3.79D-02 DFR=  1.44D-03 which will be used.
 LinEq1:  Iter=  0 NonCon=     1 RMS=1.70D-06 Max=9.75D-05 NDo=     1
 LinEq1:  Iter=  1 NonCon=     1 RMS=1.01D-06 Max=3.41D-05 NDo=     1
 LinEq1:  Iter=  2 NonCon=     1 RMS=6.86D-07 Max=2.36D-05 NDo=     1
 LinEq1:  Iter=  3 NonCon=     1 RMS=5.63D-07 Max=1.22D-05 NDo=     1
 LinEq1:  Iter=  4 NonCon=     1 RMS=3.92D-07 Max=9.48D-06 NDo=     1
 LinEq1:  Iter=  5 NonCon=     1 RMS=4.05D-07 Max=9.86D-06 NDo=     1
 LinEq1:  Iter=  6 NonCon=     1 RMS=2.53D-07 Max=4.74D-06 NDo=     1
 LinEq1:  Iter=  7 NonCon=     1 RMS=7.32D-08 Max=1.17D-06 NDo=     1
 LinEq1:  Iter=  8 NonCon=     1 RMS=1.72D-08 Max=2.49D-07 NDo=     1
 LinEq1:  Iter=  9 NonCon=     1 RMS=5.59D-09 Max=9.05D-08 NDo=     1
 LinEq1:  Iter= 10 NonCon=     1 RMS=1.95D-09 Max=6.93D-08 NDo=     1
 LinEq1:  Iter= 11 NonCon=     1 RMS=7.64D-10 Max=1.42D-08 NDo=     1
 LinEq1:  Iter= 12 NonCon=     1 RMS=2.36D-10 Max=3.90D-09 NDo=     1
 LinEq1:  Iter= 13 NonCon=     1 RMS=7.18D-11 Max=2.34D-09 NDo=     1
 LinEq1:  Iter= 14 NonCon=     1 RMS=2.42D-11 Max=7.52D-10 NDo=     1
 LinEq1:  Iter= 15 NonCon=     0 RMS=6.73D-12 Max=1.49D-10 NDo=     1
 Linear equations converged to 6.141D-11 6.141D-10 after    15 iterations.
 Density matrix breaks symmetry, PCut= 1.00D-04
 Density matrix has no symmetry -- integrals replicated.
 Density matrix is not symmetric, so final MOs not symmetrized.
 SCF Done:  E(UB3LYP) =  -1792.49509889     a.u. after   20 cycles
            Convg  =    0.1519D-07                   101 Fock formations.
              S**2 =  0.7524                  -V/T =  2.0006
 <Sx>= 0.0000 <Sy>= 0.0000 <Sz>= 0.5000 <S**2>= 0.7524 S= 0.5012
 <L.S>= 0.000000000000E+00
 Annihilation of the first spin contaminant:
 S**2 before annihilation     0.7524,   after     0.7500

 **********************************************************************

            Population analysis using the SCF density.

 **********************************************************************

 Orbital symmetries:
 Alpha Orbitals:
       Occupied  (A') (A') (A") (A") (A") (A') (A') (A') (?A) (?A)
                 (?A) (A') (A') (A') (A") (A') (A") (A') (A') (?B)
                 (?B) (?B) (?B) (A')
       Virtual   (A') (A') (A') (A') (A") (A') (A') (A') (A') (A")
                 (A') (A") (A') (A') (A') (A") (A') (A') (A") (A')
                 (?C) (?C) (A') (A") (A') (A') (A') (A') (A') (A")
                 (A") (A") (A') (A') (A") (A') (A') (A") (A') (A')
                 (A') (?D) (?D) (?D) (?C) (?C) (?D) (A') (A') (A")
                 (A') (A') (A") (A') (?E) (?E) (?E) (A') (A') (A")
                 (A') (A') (A') (A") (A') (A') (A') (A') (A') (A')
 Beta  Orbitals:
       Occupied  (A') (A') (?A) (A') (?A) (A') (A') (A') (A') (?A)
                 (?A) (A') (A') (A') (A") (A') (A") (A') (A") (A")
                 (A") (A") (A")
       Virtual   (A") (A') (A') (A') (A') (A") (A') (A') (A') (A')
                 (A") (A') (A") (A') (A') (A') (A") (A') (A') (A")
                 (A') (?A) (?A) (A') (A") (A') (A') (A') (A') (A')
                 (A") (A") (A") (A") (A') (A') (A') (A') (A") (A')
                 (A') (A') (?B) (?B) (?B) (?B) (?B) (?B) (A') (A")
                 (A') (A') (A') (A") (A') (?A) (?A) (A") (A') (A')
                 (A") (A') (A') (A') (A") (A') (A') (A') (A') (A')
                 (A')
 Unable to determine electronic state:  an orbital has unidentified symmetry.
 Alpha  occ. eigenvalues -- -323.44150 -39.23576 -34.46258 -34.46153 -34.44637
 Alpha  occ. eigenvalues --  -19.56967 -19.56393  -4.77155  -3.28013  -3.27795
 Alpha  occ. eigenvalues --   -3.24704  -1.45311  -1.44682  -1.03087  -1.01429
 Alpha  occ. eigenvalues --   -0.85998  -0.79974  -0.77888  -0.76663  -0.74900
 Alpha  occ. eigenvalues --   -0.74852  -0.74764  -0.73926  -0.72384
 Alpha virt. eigenvalues --   -0.49874  -0.31665  -0.30578  -0.23409  -0.20933
 Alpha virt. eigenvalues --   -0.18622  -0.04246  -0.02180   0.05009   0.11998
 Alpha virt. eigenvalues --    0.28881   0.31040   0.33947   0.37131   0.43933
 Alpha virt. eigenvalues --    0.52625   0.68945   0.74295   0.83138   0.86830
 Alpha virt. eigenvalues --    0.99430   0.99462   1.01354   1.02003   1.22094
 Alpha virt. eigenvalues --    1.28405   1.54240   1.56467   1.72904   1.73408
 Alpha virt. eigenvalues --    2.27352   2.28611   2.35285   2.35438   2.37639
 Alpha virt. eigenvalues --    2.53580   2.70000   2.72950   2.73053   3.03233
 Alpha virt. eigenvalues --    3.04499   3.48609   3.48702   3.48915   3.50244
 Alpha virt. eigenvalues --    3.50306   3.51412   3.51835   4.26557   4.29789
 Alpha virt. eigenvalues --    4.34957   4.44615   4.64393   4.67446   6.71146
 Alpha virt. eigenvalues --    6.71203   6.71512   6.78274   6.83848   8.79481
 Alpha virt. eigenvalues --    8.87492   9.10631  31.49761  42.25763  42.31574
 Alpha virt. eigenvalues --   42.46893  49.26212  49.29717 183.56472 978.82025
  Beta  occ. eigenvalues -- -323.44150 -39.22486 -34.45078 -34.44956 -34.44363
  Beta  occ. eigenvalues --  -19.56211 -19.55526  -4.74912  -3.24795  -3.24599
  Beta  occ. eigenvalues --   -3.23969  -1.44898  -1.41008  -1.02968  -1.00426
  Beta  occ. eigenvalues --   -0.85704  -0.76042  -0.75115  -0.73928  -0.73726
  Beta  occ. eigenvalues --   -0.73625  -0.71429  -0.65717
  Beta virt. eigenvalues --   -0.63120  -0.49607  -0.31532  -0.30107  -0.23373
  Beta virt. eigenvalues --   -0.20667  -0.18497  -0.04148  -0.01873   0.05034
  Beta virt. eigenvalues --    0.12146   0.29187   0.31687   0.37905   0.38433
  Beta virt. eigenvalues --    0.44042   0.53334   0.69244   0.76214   0.84408
  Beta virt. eigenvalues --    0.87097   0.99802   0.99915   1.01907   1.04743
  Beta virt. eigenvalues --    1.22443   1.29148   1.54549   1.56585   1.72891
  Beta virt. eigenvalues --    1.73290   2.29158   2.32105   2.38217   2.39710
  Beta virt. eigenvalues --    2.39975   2.54189   2.70093   2.73716   2.74192
  Beta virt. eigenvalues --    3.04405   3.05677   3.50457   3.50604   3.50791
  Beta virt. eigenvalues --    3.50852   3.51412   3.51975   3.52324   4.30534
  Beta virt. eigenvalues --    4.32941   4.36210   4.44803   4.65676   4.67599
  Beta virt. eigenvalues --    6.72064   6.72100   6.75900   6.79186   6.84628
  Beta virt. eigenvalues --    8.81434   8.87999   9.12570  31.51213  42.27296
  Beta virt. eigenvalues --   42.31999  42.48434  49.27666  49.29897 183.57018
  Beta virt. eigenvalues --  978.82132
          Condensed to atoms (all electrons):
               1          2          3          4          5          6
     1  Cu  27.661115   0.005276   0.113608  -0.005678  -0.005651  -0.000365
     2  O    0.005276   8.050224   0.000000  -0.000001  -0.000004   0.249562
     3  O    0.113608   0.000000   8.324444   0.243801   0.244136   0.000000
     4  H   -0.005678  -0.000001   0.243801   0.195571  -0.008791   0.000000
     5  H   -0.005651  -0.000004   0.244136  -0.008791   0.197929   0.000000
     6  H   -0.000365   0.249562   0.000000   0.000000   0.000000   0.211290
     7  H   -0.000365   0.249561   0.000000   0.000000   0.000000  -0.011020
               7
     1  Cu  -0.000365
     2  O    0.249561
     3  O    0.000000
     4  H    0.000000
     5  H    0.000000
     6  H   -0.011020
     7  H    0.211289
          Atomic-Atomic Spin Densities.
               1          2          3          4          5          6
     1  Cu   0.411423  -0.000342  -0.007422   0.000061   0.000054   0.000025
     2  O   -0.000342   0.585784   0.000000   0.000000   0.000000  -0.006670
     3  O   -0.007422   0.000000   0.068443  -0.000502  -0.000495   0.000000
     4  H    0.000061   0.000000  -0.000502  -0.001557   0.000016   0.000000
     5  H    0.000054   0.000000  -0.000495   0.000016  -0.001568   0.000000
     6  H    0.000025  -0.006670   0.000000   0.000000   0.000000  -0.009950
     7  H    0.000025  -0.006670   0.000000   0.000000   0.000000   0.000607
               7
     1  Cu   0.000025
     2  O   -0.006670
     3  O    0.000000
     4  H    0.000000
     5  H    0.000000
     6  H    0.000607
     7  H   -0.009950
 Mulliken charges and spin densities:
               1          2
     1  Cu   1.232061   0.403824
     2  O   -0.554617   0.572103
     3  O   -0.925990   0.060024
     4  H    0.575097  -0.001981
     5  H    0.572381  -0.001993
     6  H    0.550533  -0.015988
     7  H    0.550534  -0.015988
 Sum of Mulliken charges =   2.00000   1.00000
 Mulliken charges and spin densities with hydrogens summed into heavy atoms:
               1          2
     1  Cu   1.232061   0.403824
     2  O    0.546450   0.540127
     3  O    0.221489   0.056049
 Electronic spatial extent (au):  <R**2>=            663.3325
 Charge=              2.0000 electrons
 Dipole moment (field-independent basis, Debye):
    X=             -1.2872    Y=             -4.0476    Z=             -0.0001  Tot=              4.2474
 Quadrupole moment (field-independent basis, Debye-Ang):
   XX=             -8.3071   YY=             32.5228   ZZ=            -16.5717
   XY=             18.8591   XZ=             -0.0001   YZ=             -0.0003
 Traceless Quadrupole moment (field-independent basis, Debye-Ang):
   XX=            -10.8551   YY=             29.9748   ZZ=            -19.1197
   XY=             18.8591   XZ=             -0.0001   YZ=             -0.0003
 Octapole moment (field-independent basis, Debye-Ang**2):
  XXX=             10.6338  YYY=            -97.8413  ZZZ=             -0.0003  XYY=            -41.6525
  XXY=             -3.5626  XXZ=              0.0033  XZZ=             -6.7432  YZZ=            -13.9113
  YYZ=             -0.0034  XYZ=              0.0049
 Hexadecapole moment (field-independent basis, Debye-Ang**3):
 XXXX=            -61.9293 YYYY=            112.4074 ZZZZ=            -11.2369 XXXY=            -57.4341
 XXXZ=             -0.0076 YYYX=            107.2964 YYYZ=              0.0148 ZZZX=             -0.0020
 ZZZY=              0.0004 XXYY=            -23.5335 XXZZ=            -14.9448 YYZZ=            -39.6374
 XXYZ=             -0.0093 YYXZ=             -0.0112 ZZXY=            -17.9505
 N-N= 1.442679347870D+02 E-N=-4.554282892094D+03  KE= 1.791500108349D+03
 Symmetry A'   KE= 1.565842598768D+03
 Symmetry A"   KE= 2.256575095813D+02
                          Isotropic Fermi Contact Couplings
        Atom                 a.u.       MegaHertz       Gauss      10(-4) cm-1
     1  Cu(63)            -0.13594    -161.23660     -57.53323     -53.78274
     2  O(17)              0.06320     -38.31336     -13.67116     -12.77996
     3  O(17)              0.01115      -6.75914      -2.41183      -2.25461
     4  H(1)              -0.00110      -4.89807      -1.74775      -1.63382
     5  H(1)              -0.00110      -4.89973      -1.74835      -1.63437
     6  H(1)              -0.00864     -38.62701     -13.78308     -12.88458
     7  H(1)              -0.00864     -38.62703     -13.78308     -12.88459
 --------------------------------------------------------
       Center         ----  Spin Dipole Couplings  ----
                      3XX-RR        3YY-RR        3ZZ-RR
 --------------------------------------------------------
     1   Atom       -0.826194     -0.098605      0.924799
     2   Atom        1.939243     -0.820701     -1.118542
     3   Atom       -0.140936     -0.132372      0.273308
     4   Atom       -0.005867      0.014360     -0.008493
     5   Atom        0.015826     -0.007260     -0.008567
     6   Atom       -0.030814     -0.050877      0.081692
     7   Atom       -0.030847     -0.050845      0.081692
 --------------------------------------------------------
                        XY            XZ            YZ
 --------------------------------------------------------
     1   Atom        1.379722      0.017960     -0.011316
     2   Atom       -0.961195      0.002929     -0.000919
     3   Atom        0.014789      0.001749      0.001308
     4   Atom       -0.006470      0.000010      0.000030
     5   Atom       -0.000415     -0.000022      0.000033
     6   Atom       -0.006955     -0.015972     -0.050466
     7   Atom       -0.007002      0.015751      0.050536
 --------------------------------------------------------


 ---------------------------------------------------------------------------------
              Anisotropic Spin Dipole Couplings in Principal Axis System
 ---------------------------------------------------------------------------------

       Atom             a.u.   MegaHertz   Gauss  10(-4) cm-1        Axes

              Baa    -1.8894  -267.509   -95.454   -89.232  0.7921 -0.6103 -0.0075
     1 Cu(63) Bbb     0.9249   130.943    46.724    43.678 -0.0248 -0.0445  0.9987
              Bcc     0.9646   136.567    48.730    45.554  0.6099  0.7909  0.0504
 
              Baa    -1.1225    81.220    28.981    27.092  0.2995  0.9541  0.0000
     2 O(17)  Bbb    -1.1185    80.937    28.880    26.998 -0.0009  0.0003  1.0000
              Bcc     2.2410  -162.157   -57.862   -54.090  0.9541 -0.2995  0.0009
 
              Baa    -0.1521    11.002     3.926     3.670  0.7995 -0.6007 -0.0014
     3 O(17)  Bbb    -0.1213     8.775     3.131     2.927  0.6007  0.7995 -0.0053
              Bcc     0.2733   -19.777    -7.057    -6.597  0.0043  0.0034  1.0000
 
              Baa    -0.0085    -4.532    -1.617    -1.512 -0.0240 -0.0081  0.9997
     4 H(1)   Bbb    -0.0078    -4.140    -1.477    -1.381  0.9595  0.2806  0.0253
              Bcc     0.0163     8.672     3.094     2.893 -0.2807  0.9598  0.0011
 
              Baa    -0.0086    -4.571    -1.631    -1.525  0.0005 -0.0247  0.9997
     5 H(1)   Bbb    -0.0073    -3.877    -1.383    -1.293  0.0180  0.9995  0.0247
              Bcc     0.0158     8.448     3.015     2.818  0.9998 -0.0180 -0.0009
 
              Baa    -0.0714   -38.074   -13.586   -12.700  0.2834  0.9016  0.3269
     6 H(1)   Bbb    -0.0286   -15.281    -5.452    -5.097  0.9539 -0.3001  0.0008
              Bcc     0.1000    53.355    19.038    17.797 -0.0988 -0.3116  0.9451
 
              Baa    -0.0714   -38.074   -13.586   -12.700  0.2829  0.9017 -0.3269
     7 H(1)   Bbb    -0.0286   -15.281    -5.452    -5.097  0.9542 -0.2991  0.0008
              Bcc     0.1000    53.355    19.038    17.797  0.0971  0.3121  0.9451
 

 ---------------------------------------------------------------------------------

 Density matrix is not symmetric, so symmetry will not be used here.
 Density matrix is not symmetric, so symmetry will not be used here.
 Calling FoFJK, ICntrl=      2127 FMM=F ISym2X=0 I1Cent= 0 IOpClX= 1 NMat=1 NMatS=1 NMatT=0.
 ***** Axes restored to original set *****
 -------------------------------------------------------------------
 Center     Atomic                   Forces (Hartrees/Bohr)
 Number     Number              X              Y              Z
 -------------------------------------------------------------------
      1       29          -0.003578713    0.000020905    0.004359753
      2        8          -0.000043102   -0.000004502   -0.073239436
      3        8          -0.027136460    0.000003554    0.077491794
      4        1           0.015968488    0.000015039   -0.043133998
      5        1           0.014846018   -0.000034774   -0.043756514
      6        1          -0.000058455    0.008006254    0.039139386
      7        1           0.000002225   -0.008006475    0.039139014
 -------------------------------------------------------------------
 Cartesian Forces:  Max     0.077491794 RMS     0.030534704

 GradGradGradGradGradGradGradGradGradGradGradGradGradGradGradGradGradGrad
 Berny optimization.
 FormGI is forming the generalized inverse of G from B-inverse, IUseBI=4.
 Internal  Forces:  Max     0.052260194 RMS     0.020553980
 Search for a local minimum.
 Step number   1 out of a maximum of  100 on scan point     1 out of    26
 All quantities printed in internal units (Hartrees-Bohrs-Radians)
 Mixed Optimization -- RFO/linear search
 Second derivative matrix not updated -- first step.
 The second derivative matrix:
                          R1        R2        R3        R4        R5
           R1           0.00858
           R2           0.00000   0.19001
           R3           0.00000   0.00000   0.57681
           R4           0.00000   0.00000   0.00000   0.57681
           R5           0.00000   0.00000   0.00000   0.00000   0.57681
           R6           0.00000   0.00000   0.00000   0.00000   0.00000
           A1           0.00000   0.00000   0.00000   0.00000   0.00000
           A2           0.00000   0.00000   0.00000   0.00000   0.00000
           A3           0.00000   0.00000   0.00000   0.00000   0.00000
           A4           0.00000   0.00000   0.00000   0.00000   0.00000
           A5           0.00000   0.00000   0.00000   0.00000   0.00000
           A6           0.00000   0.00000   0.00000   0.00000   0.00000
           A7           0.00000   0.00000   0.00000   0.00000   0.00000
           D1           0.00000   0.00000   0.00000   0.00000   0.00000
           D2           0.00000   0.00000   0.00000   0.00000   0.00000
           D3           0.00000   0.00000   0.00000   0.00000   0.00000
           D4           0.00000   0.00000   0.00000   0.00000   0.00000
           D5           0.00000   0.00000   0.00000   0.00000   0.00000
           D6           0.00000   0.00000   0.00000   0.00000   0.00000
                          R6        A1        A2        A3        A4
           R6           0.57681
           A1           0.00000   0.25000
           A2           0.00000   0.00000   0.16000
           A3           0.00000   0.00000   0.00000   0.16000
           A4           0.00000   0.00000   0.00000   0.00000   0.16000
           A5           0.00000   0.00000   0.00000   0.00000   0.00000
           A6           0.00000   0.00000   0.00000   0.00000   0.00000
           A7           0.00000   0.00000   0.00000   0.00000   0.00000
           D1           0.00000   0.00000   0.00000   0.00000   0.00000
           D2           0.00000   0.00000   0.00000   0.00000   0.00000
           D3           0.00000   0.00000   0.00000   0.00000   0.00000
           D4           0.00000   0.00000   0.00000   0.00000   0.00000
           D5           0.00000   0.00000   0.00000   0.00000   0.00000
           D6           0.00000   0.00000   0.00000   0.00000   0.00000
                          A5        A6        A7        D1        D2
           A5           0.16000
           A6           0.00000   0.16000
           A7           0.00000   0.00000   0.16000
           D1           0.00000   0.00000   0.00000   0.00230
           D2           0.00000   0.00000   0.00000   0.00000   0.00230
           D3           0.00000   0.00000   0.00000   0.00000   0.00000
           D4           0.00000   0.00000   0.00000   0.00000   0.00000
           D5           0.00000   0.00000   0.00000   0.00000   0.00000
           D6           0.00000   0.00000   0.00000   0.00000   0.00000
                          D3        D4        D5        D6
           D3           0.03612
           D4           0.00000   0.03612
           D5           0.00000   0.00000   0.01690
           D6           0.00000   0.00000   0.00000   0.01690
 ITU=  0
     Eigenvalues ---    0.00230   0.01424   0.02039   0.03612   0.16000
     Eigenvalues ---    0.16000   0.16000   0.16000   0.19001   0.57681
     Eigenvalues ---    0.57681   0.57681   0.576811000.000001000.00000
     Eigenvalues --- 1000.000001000.000001000.000001000.00000
 RFO step:  Lambda=-3.62518759D-02 EMin= 2.30000000D-03
 Linear search not attempted -- first point.
 Maximum step size (   0.300) exceeded in Quadratic search.
    -- Step size scaled by   0.713
 Iteration  1 RMS(Cart)=  0.07732938 RMS(Int)=  0.00318070
 Iteration  2 RMS(Cart)=  0.00318183 RMS(Int)=  0.00000449
 Iteration  3 RMS(Cart)=  0.00000344 RMS(Int)=  0.00000295
 Iteration  4 RMS(Cart)=  0.00000000 RMS(Int)=  0.00000295
 Iteration  1 RMS(Cart)=  0.00000000 RMS(Int)=  0.00000000
 Variable       Old X    -DE/DX   Delta X   Delta X   Delta X     New X
                                 (Linear)    (Quad)   (Total)
    R1        7.34197   0.00505   0.00000   0.00000   0.00000   7.34197
    R2        3.56225   0.01008   0.00000   0.03174   0.03174   3.59399
    R3        1.79524   0.02060   0.00000   0.02394   0.02394   1.81918
    R4        1.79524   0.02060   0.00000   0.02394   0.02394   1.81918
    R5        1.79524   0.01511   0.00000   0.01757   0.01757   1.81281
    R6        1.79524   0.01442   0.00000   0.01677   0.01677   1.81201
    A1        2.79253   0.00021   0.00000   0.00000   0.00000   2.79253
    A2        1.91063   0.02049   0.00000   0.07440   0.07440   1.98504
    A3        1.91063   0.02049   0.00000   0.07440   0.07440   1.98503
    A4        2.46192  -0.04097   0.00000  -0.14881  -0.14881   2.31311
    A5        1.91063   0.02571   0.00000   0.09337   0.09337   2.00400
    A6        1.91063   0.02655   0.00000   0.09644   0.09644   2.00707
    A7        2.46192  -0.05226   0.00000  -0.18980  -0.18980   2.27212
    D1        1.57080   0.00005   0.00000   0.00097   0.00097   1.57176
    D2       -1.57080   0.00005   0.00000   0.00093   0.00093  -1.56986
    D3        3.14159   0.00004   0.00000   0.00038   0.00037  -3.14122
    D4        0.00000   0.00005   0.00000   0.00045   0.00046   0.00046
    D5        3.14159   0.00000   0.00000  -0.00005  -0.00004   3.14155
    D6        3.14159   0.00001   0.00000   0.00011   0.00011  -3.14148
         Item               Value     Threshold  Converged?
 Maximum Force            0.052260     0.000450     NO 
 RMS     Force            0.021695     0.000300     NO 
 Maximum Displacement     0.188664     0.001800     NO 
 RMS     Displacement     0.077655     0.001200     NO 
 Predicted change in Energy=-1.826176D-02
 GradGradGradGradGradGradGradGradGradGradGradGradGradGradGradGradGradGrad

                          Input orientation:                          
 ---------------------------------------------------------------------
 Center     Atomic      Atomic             Coordinates (Angstroms)
 Number     Number       Type             X           Y           Z
 ---------------------------------------------------------------------
      1         29           0       -0.012041    0.000118    0.010496
      2          8           0       -0.006552    0.000016    3.895695
      3          8           0        0.635907   -0.000005   -1.777583
      4          1           0       -0.045492    0.000512   -2.452820
      5          1           0        1.591017   -0.000651   -1.862447
      6          1           0       -0.006628    0.881256    4.283190
      7          1           0       -0.005413   -0.881245    4.283139
 ---------------------------------------------------------------------
                    Distance matrix (angstroms):
                    1          2          3          4          5
     1  Cu   0.000000
     2  O    3.885203   0.000000
     3  O    1.901859   5.709540   0.000000
     4  H    2.463543   6.348635   0.959296   0.000000
     5  H    2.465302   5.975653   0.958873   1.739742   0.000000
     6  H    4.362607   0.962671   6.158120   6.793456   6.410856
     7  H    4.362605   0.962671   6.157941   6.793544   6.410325
                    6          7
     6  H    0.000000
     7  H    1.762502   0.000000
 Stoichiometry    CuH4O2(2+,2)
 Framework group  C1[X(CuH4O2)]
 Deg. of freedom    15
 Full point group                 C1      NOp   1
 Omega: Change in point group or standard orientation.

 Old FWG=CS   [SG(Cu1H2O2),X(H2)]
 New FWG=C01  [X(Cu1H4O2)]
 Largest Abelian subgroup         C1      NOp   1
 Largest concise Abelian subgroup C1      NOp   1
                         Standard orientation:                         
 ---------------------------------------------------------------------
 Center     Atomic      Atomic             Coordinates (Angstroms)
 Number     Number       Type             X           Y           Z
 ---------------------------------------------------------------------
      1         29           0        0.415354    0.173841   -0.000165
      2          8           0       -3.456133   -0.152335    0.000145
      3          8           0        2.250817   -0.324298    0.000315
      4          1           0        2.867502    0.410514   -0.000068
      5          1           0        2.414231   -1.269143    0.000822
      6          1           0       -3.842308   -0.183168    0.881424
      7          1           0       -3.842163   -0.186529   -0.881074
 ---------------------------------------------------------------------
 Rotational constants (GHZ):     68.8786101      1.5396999      1.5202172
 Standard basis: 6-311G(d) (5D, 7F)
 There are   102 symmetry adapted cartesian basis functions of A   symmetry.
 There are    94 symmetry adapted basis functions of A   symmetry.
    94 basis functions,   165 primitive gaussians,   102 cartesian basis functions
    24 alpha electrons       23 beta electrons
       nuclear repulsion energy       142.8711732435 Hartrees.
 NAtoms=    7 NActive=    7 NUniq=    7 SFac= 1.00D+00 NAtFMM=   60 NAOKFM=F Big=F
 Integral buffers will be    131072 words long.
 Raffenetti 2 integral format.
 Two-electron integral symmetry is turned on.
 One-electron integrals computed using PRISM.
 NBasis=    94 RedAO= T EigKep=  9.37D-03  NBF=    94
 NBsUse=    94 1.00D-06 EigRej= -1.00D+00 NBFU=    94
 Initial guess from the checkpoint file:  "pescuh2o2.chk"
 B after Tr=     0.000000    0.000000    0.000000
         Rot=    0.830317    0.000464    0.000312    0.557291 Ang=  67.74 deg.
 Initial guess <Sx>= 0.0000 <Sy>= 0.0000 <Sz>= 0.5000 <S**2>= 0.7524 S= 0.5012
 ExpMin= 4.08D-02 ExpMax= 3.37D+05 ExpMxC= 1.14D+04 IAcc=2 IRadAn=         4 AccDes= 0.00D+00
 Harris functional with IExCor=  402 and IRadAn=       4 diagonalized for initial guess.
 HarFok:  IExCor=  402 AccDes= 0.00D+00 IRadAn=         4 IDoV= 1 UseB2=F ITyADJ=14
 ICtDFT=  3500011 ScaDFX=  1.000000  1.000000  1.000000  1.000000
 FoFCou: FMM=F IPFlag=           0 FMFlag=      100000 FMFlg1=           0
         NFxFlg=           0 DoJE=T BraDBF=F KetDBF=T FulRan=T
         wScrn=  0.000000 ICntrl=     500 IOpCl=  0 I1Cent=   200000004 NGrid=           0
         NMat0=    1 NMatS0=      1 NMatT0=    0 NMatD0=    1 NMtDS0=    0 NMtDT0=    0
 Petite list used in FoFCou.
 Keep R1 and R2 ints in memory in canonical form, NReq=21960746.
 Requested convergence on RMS density matrix=1.00D-08 within  64 cycles.
 Requested convergence on MAX density matrix=1.00D-06.
 Requested convergence on             energy=1.00D-06.
 No special actions if energy rises.
 EnCoef did     3 forward-backward iterations
 EnCoef did    50 forward-backward iterations
 SCF Done:  E(UB3LYP) =  -1792.51810602     A.U. after   21 cycles
            NFock= 21  Conv=0.99D-08     -V/T= 2.0006
 <Sx>= 0.0000 <Sy>= 0.0000 <Sz>= 0.5000 <S**2>= 0.7523 S= 0.5012
 <L.S>= 0.000000000000E+00
 Annihilation of the first spin contaminant:
 S**2 before annihilation     0.7523,   after     0.7500
 QCSCF skips out because SCF is already converged.
 Calling FoFJK, ICntrl=      2127 FMM=F ISym2X=0 I1Cent= 0 IOpClX= 1 NMat=1 NMatS=1 NMatT=0.
 ***** Axes restored to original set *****
 -------------------------------------------------------------------
 Center     Atomic                   Forces (Hartrees/Bohr)
 Number     Number              X              Y              Z
 -------------------------------------------------------------------
      1       29          -0.000558306    0.000016868   -0.002225296
      2        8          -0.000118394   -0.000002634   -0.057937353
      3        8          -0.020832676    0.000020301    0.057665353
      4        1           0.017793609    0.000004318   -0.027343662
      5        1           0.003683138   -0.000036753   -0.032713323
      6        1          -0.000011868   -0.003566514    0.031277266
      7        1           0.000044496    0.003564413    0.031277015
 -------------------------------------------------------------------
 Cartesian Forces:  Max     0.057937353 RMS     0.023146811

 GradGradGradGradGradGradGradGradGradGradGradGradGradGradGradGradGradGrad
 Berny optimization.
 Using GEDIIS/GDIIS optimizer.
 FormGI is forming the generalized inverse of G from B-inverse, IUseBI=4.
 Internal  Forces:  Max     0.038792506 RMS     0.015459681
 Search for a local minimum.
 Step number   2 out of a maximum of  100 on scan point     1 out of    26
 All quantities printed in internal units (Hartrees-Bohrs-Radians)
 Mixed Optimization -- RFO/linear search
 Update second derivatives using D2CorX and points    1    2
 DE= -2.30D-02 DEPred=-1.83D-02 R= 1.26D+00
 TightC=F SS=  1.41D+00  RLast= 3.00D-01 DXNew= 5.0454D-01 9.0001D-01
 Trust test= 1.26D+00 RLast= 3.00D-01 DXMaxT set to 5.05D-01
 The second derivative matrix:
                          R1        R2        R3        R4        R5
           R1           0.00861
           R2           0.00056   0.19739
           R3           0.00083   0.00901   0.58574
           R4           0.00083   0.00901   0.00893   0.58574
           R5           0.00063   0.00693   0.00702   0.00702   0.58231
           R6           0.00058   0.00625   0.00616   0.00616   0.00485
           A1          -0.00007  -0.00114  -0.00169  -0.00169  -0.00128
           A2           0.00017  -0.00184  -0.00654  -0.00654  -0.00471
           A3           0.00017  -0.00184  -0.00655  -0.00655  -0.00471
           A4          -0.00033   0.00367   0.01309   0.01309   0.00942
           A5           0.00048   0.00250  -0.00109  -0.00109  -0.00053
           A6           0.00051   0.00275  -0.00088  -0.00088  -0.00036
           A7          -0.00099  -0.00525   0.00196   0.00196   0.00089
           D1           0.00000  -0.00002  -0.00003  -0.00003  -0.00003
           D2           0.00000   0.00002   0.00003   0.00003   0.00002
           D3           0.00000   0.00000  -0.00001  -0.00001   0.00000
           D4           0.00000  -0.00001  -0.00002  -0.00002  -0.00002
           D5           0.00000   0.00005   0.00008   0.00008   0.00006
           D6           0.00000   0.00000  -0.00001  -0.00001   0.00000
                          R6        A1        A2        A3        A4
           R6           0.58106
           A1          -0.00118   0.25013
           A2          -0.00460  -0.00034   0.15151
           A3          -0.00460  -0.00034  -0.00849   0.15151
           A4           0.00920   0.00068   0.01698   0.01698   0.12604
           A5          -0.00081  -0.00099  -0.00923  -0.00923   0.01846
           A6          -0.00067  -0.00104  -0.00948  -0.00948   0.01897
           A7           0.00149   0.00202   0.01871   0.01871  -0.03742
           D1          -0.00002   0.00000  -0.00001  -0.00001   0.00002
           D2           0.00002   0.00000   0.00001   0.00001  -0.00001
           D3           0.00000   0.00000  -0.00001  -0.00001   0.00002
           D4          -0.00002   0.00000  -0.00001  -0.00001   0.00003
           D5           0.00005  -0.00001   0.00002   0.00002  -0.00003
           D6           0.00000   0.00000   0.00000   0.00000   0.00000
                          A5        A6        A7        D1        D2
           A5           0.15257
           A6          -0.00753   0.15237
           A7           0.01497   0.01517   0.12987
           D1          -0.00002  -0.00002   0.00004   0.00230
           D2           0.00002   0.00002  -0.00004   0.00000   0.00230
           D3          -0.00001  -0.00001   0.00002   0.00000   0.00000
           D4          -0.00002  -0.00002   0.00004   0.00000   0.00000
           D5           0.00005   0.00005  -0.00009   0.00000   0.00000
           D6           0.00000   0.00000   0.00001   0.00000   0.00000
                          D3        D4        D5        D6
           D3           0.03612
           D4           0.00000   0.03612
           D5           0.00000   0.00000   0.01690
           D6           0.00000   0.00000   0.00000   0.01690
 ITU=  1  0
 Use linear search instead of GDIIS.
 Linear search step of   0.600 exceeds DXMaxT=   0.505 but not scaled.
 Quartic linear search produced a step of  2.00000.
 Iteration  1 RMS(Cart)=  0.11812893 RMS(Int)=  0.04123344
 Iteration  2 RMS(Cart)=  0.04347697 RMS(Int)=  0.00128842
 Iteration  3 RMS(Cart)=  0.00125080 RMS(Int)=  0.00001413
 Iteration  4 RMS(Cart)=  0.00000028 RMS(Int)=  0.00001413
 Iteration  1 RMS(Cart)=  0.00000000 RMS(Int)=  0.00000000
 Variable       Old X    -DE/DX   Delta X   Delta X   Delta X     New X
                                 (Linear)    (Quad)   (Total)
    R1        7.34197   0.00461   0.00000   0.00000   0.00000   7.34197
    R2        3.59399   0.00248   0.06349   0.00000   0.06349   3.65748
    R3        1.81918   0.00932   0.04789   0.00000   0.04789   1.86707
    R4        1.81918   0.00932   0.04789   0.00000   0.04789   1.86707
    R5        1.81281   0.00660   0.03513   0.00000   0.03513   1.84794
    R6        1.81201   0.00658   0.03353   0.00000   0.03353   1.84554
    A1        2.79253   0.00110   0.00000   0.00000   0.00000   2.79253
    A2        1.98504   0.01823   0.14881   0.00000   0.14881   2.13385
    A3        1.98503   0.01823   0.14880   0.00000   0.14880   2.13384
    A4        2.31311  -0.03646  -0.29761   0.00000  -0.29761   2.01550
    A5        2.00400   0.01915   0.18673   0.00000   0.18673   2.19073
    A6        2.00707   0.01965   0.19287   0.00000   0.19287   2.19994
    A7        2.27212  -0.03879  -0.37960   0.00000  -0.37960   1.89252
    D1        1.57176   0.00007   0.00194   0.00000   0.00195   1.57371
    D2       -1.56986   0.00003   0.00186   0.00000   0.00185  -1.56801
    D3       -3.14122   0.00004   0.00074   0.00000   0.00071  -3.14052
    D4        0.00046   0.00005   0.00092   0.00000   0.00095   0.00141
    D5        3.14155  -0.00004  -0.00009   0.00000  -0.00008   3.14147
    D6       -3.14148   0.00001   0.00022   0.00000   0.00018  -3.14131
         Item               Value     Threshold  Converged?
 Maximum Force            0.038793     0.000450     NO 
 RMS     Force            0.016303     0.000300     NO 
 Maximum Displacement     0.382421     0.001800     NO 
 RMS     Displacement     0.157143     0.001200     NO 
 Predicted change in Energy=-2.806396D-02
 GradGradGradGradGradGradGradGradGradGradGradGradGradGradGradGradGradGrad

                          Input orientation:                          
 ---------------------------------------------------------------------
 Center     Atomic      Atomic             Coordinates (Angstroms)
 Number     Number       Type             X           Y           Z
 ---------------------------------------------------------------------
      1         29           0       -0.034871    0.000381    0.030130
      2          8           0       -0.019668    0.000053    3.915303
      3          8           0        0.619972    0.000009   -1.791178
      4          1           0        0.063216    0.001372   -2.595098
      5          1           0        1.557469   -0.001828   -2.064816
      6          1           0       -0.019378    0.835502    4.442745
      7          1           0       -0.015941   -0.835489    4.442584
 ---------------------------------------------------------------------
                    Distance matrix (angstroms):
                    1          2          3          4          5
     1  Cu   0.000000
     2  O    3.885203   0.000000
     3  O    1.935454   5.742218   0.000000
     4  H    2.627060   6.510929   0.977889   0.000000
     5  H    2.631415   6.184593   0.976618   1.585560   0.000000
     6  H    4.490974   0.988013   6.322074   7.087583   6.748031
     7  H    4.490967   0.988013   6.321569   7.087706   6.746618
                    6          7
     6  H    0.000000
     7  H    1.670995   0.000000
 Stoichiometry    CuH4O2(2+,2)
 Framework group  C1[X(CuH4O2)]
 Deg. of freedom    15
 Full point group                 C1      NOp   1
 Largest Abelian subgroup         C1      NOp   1
 Largest concise Abelian subgroup C1      NOp   1
                         Standard orientation:                         
 ---------------------------------------------------------------------
 Center     Atomic      Atomic             Coordinates (Angstroms)
 Number     Number       Type             X           Y           Z
 ---------------------------------------------------------------------
      1         29           0        0.407213    0.179165   -0.000437
      2          8           0       -3.463170   -0.159860    0.000389
      3          8           0        2.276770   -0.321568    0.000809
      4          1           0        3.031480    0.300268    0.000129
      5          1           0        2.627607   -1.232992    0.001951
      6          1           0       -3.988743   -0.201384    0.835984
      7          1           0       -3.988314   -0.210264   -0.834987
 ---------------------------------------------------------------------
 Rotational constants (GHZ):     70.7244440      1.5099867      1.4906936
 Standard basis: 6-311G(d) (5D, 7F)
 There are   102 symmetry adapted cartesian basis functions of A   symmetry.
 There are    94 symmetry adapted basis functions of A   symmetry.
    94 basis functions,   165 primitive gaussians,   102 cartesian basis functions
    24 alpha electrons       23 beta electrons
       nuclear repulsion energy       140.3005765260 Hartrees.
 NAtoms=    7 NActive=    7 NUniq=    7 SFac= 1.00D+00 NAtFMM=   60 NAOKFM=F Big=F
 Integral buffers will be    131072 words long.
 Raffenetti 2 integral format.
 Two-electron integral symmetry is turned on.
 One-electron integrals computed using PRISM.
 NBasis=    94 RedAO= T EigKep=  9.37D-03  NBF=    94
 NBsUse=    94 1.00D-06 EigRej= -1.00D+00 NBFU=    94
 Initial guess from the checkpoint file:  "pescuh2o2.chk"
 B after Tr=     0.000000    0.000000    0.000000
         Rot=    0.999999    0.000913   -0.000001   -0.001316 Ang=   0.18 deg.
 Initial guess <Sx>= 0.0000 <Sy>= 0.0000 <Sz>= 0.5000 <S**2>= 0.7524 S= 0.5012
 ExpMin= 4.08D-02 ExpMax= 3.37D+05 ExpMxC= 1.14D+04 IAcc=2 IRadAn=         4 AccDes= 0.00D+00
 Harris functional with IExCor=  402 and IRadAn=       4 diagonalized for initial guess.
 HarFok:  IExCor=  402 AccDes= 0.00D+00 IRadAn=         4 IDoV= 1 UseB2=F ITyADJ=14
 ICtDFT=  3500011 ScaDFX=  1.000000  1.000000  1.000000  1.000000
 FoFCou: FMM=F IPFlag=           0 FMFlag=      100000 FMFlg1=           0
         NFxFlg=           0 DoJE=T BraDBF=F KetDBF=T FulRan=T
         wScrn=  0.000000 ICntrl=     500 IOpCl=  0 I1Cent=   200000004 NGrid=           0
         NMat0=    1 NMatS0=      1 NMatT0=    0 NMatD0=    1 NMtDS0=    0 NMtDT0=    0
 Petite list used in FoFCou.
 Keep R1 and R2 ints in memory in canonical form, NReq=21960450.
 Requested convergence on RMS density matrix=1.00D-08 within  64 cycles.
 Requested convergence on MAX density matrix=1.00D-06.
 Requested convergence on             energy=1.00D-06.
 No special actions if energy rises.
 SCF Done:  E(UB3LYP) =  -1792.54193906     A.U. after   21 cycles
            NFock= 21  Conv=0.43D-08     -V/T= 2.0007
 <Sx>= 0.0000 <Sy>= 0.0000 <Sz>= 0.5000 <S**2>= 0.7523 S= 0.5012
 <L.S>= 0.000000000000E+00
 Annihilation of the first spin contaminant:
 S**2 before annihilation     0.7523,   after     0.7500
 QCSCF skips out because SCF is already converged.
 Calling FoFJK, ICntrl=      2127 FMM=F ISym2X=0 I1Cent= 0 IOpClX= 1 NMat=1 NMatS=1 NMatT=0.
 ***** Axes restored to original set *****
 -------------------------------------------------------------------
 Center     Atomic                   Forces (Hartrees/Bohr)
 Number     Number              X              Y              Z
 -------------------------------------------------------------------
      1       29           0.003139978    0.000004944   -0.011797644
      2        8          -0.000077846   -0.000004894   -0.008008243
      3        8          -0.001620174    0.000036651    0.001713192
      4        1           0.003623209    0.000000090    0.004845144
      5        1          -0.005080577   -0.000036937    0.001136742
      6        1           0.000005316   -0.014534220    0.006054669
      7        1           0.000010094    0.014534367    0.006056141
 -------------------------------------------------------------------
 Cartesian Forces:  Max     0.014534367 RMS     0.006087769

 GradGradGradGradGradGradGradGradGradGradGradGradGradGradGradGradGradGrad
 Berny optimization.
 Using GEDIIS/GDIIS optimizer.
 FormGI is forming the generalized inverse of G from B-inverse, IUseBI=4.
 Internal  Forces:  Max     0.016028145 RMS     0.006067753
 Search for a local minimum.
 Step number   3 out of a maximum of  100 on scan point     1 out of    26
 All quantities printed in internal units (Hartrees-Bohrs-Radians)
 Mixed Optimization -- RFO/linear search
 Update second derivatives using D2CorX and points    2    3
 The second derivative matrix:
                          R1        R2        R3        R4        R5
           R1           0.00858
           R2           0.00016   0.19097
           R3           0.00028   0.00026   0.57408
           R4           0.00028   0.00026  -0.00273   0.57408
           R5           0.00019  -0.00007  -0.00245  -0.00245   0.57470
           R6           0.00018  -0.00016  -0.00251  -0.00251  -0.00213
           A1           0.00000   0.00002   0.00003   0.00003   0.00002
           A2           0.00015  -0.00154  -0.00537  -0.00537  -0.00419
           A3           0.00015  -0.00154  -0.00537  -0.00537  -0.00419
           A4          -0.00031   0.00307   0.01075   0.01075   0.00838
           A5           0.00029   0.00003  -0.00340  -0.00340  -0.00296
           A6           0.00029  -0.00006  -0.00367  -0.00367  -0.00316
           A7          -0.00058   0.00004   0.00707   0.00707   0.00612
           D1           0.00000   0.00000   0.00000   0.00000   0.00000
           D2           0.00000   0.00000   0.00000   0.00000   0.00000
           D3           0.00000   0.00000  -0.00001  -0.00001  -0.00001
           D4           0.00000  -0.00001  -0.00002  -0.00002  -0.00001
           D5           0.00000   0.00000   0.00000   0.00000   0.00000
           D6           0.00000   0.00000  -0.00001  -0.00001   0.00000
                          R6        A1        A2        A3        A4
           R6           0.57467
           A1           0.00002   0.25000
           A2          -0.00409   0.00002   0.15369
           A3          -0.00409   0.00002  -0.00631   0.15369
           A4           0.00819  -0.00003   0.01262   0.01262   0.13477
           A5          -0.00300   0.00003  -0.00606  -0.00606   0.01212
           A6          -0.00320   0.00003  -0.00634  -0.00634   0.01269
           A7           0.00620  -0.00006   0.01240   0.01240  -0.02480
           D1           0.00000   0.00000   0.00000   0.00000   0.00000
           D2           0.00000   0.00000   0.00000   0.00000   0.00000
           D3          -0.00001   0.00000  -0.00001  -0.00001   0.00002
           D4          -0.00001   0.00000  -0.00001  -0.00001   0.00003
           D5           0.00000   0.00000   0.00000   0.00000   0.00000
           D6           0.00000   0.00000   0.00000   0.00000   0.00001
                          A5        A6        A7        D1        D2
           A5           0.15586
           A6          -0.00444   0.15526
           A7           0.00858   0.00918   0.14225
           D1           0.00000   0.00000   0.00001   0.00230
           D2           0.00000   0.00000   0.00000   0.00000   0.00230
           D3          -0.00001  -0.00001   0.00002   0.00000   0.00000
           D4          -0.00002  -0.00002   0.00004   0.00000   0.00000
           D5           0.00000   0.00000   0.00001   0.00000   0.00000
           D6          -0.00001  -0.00001   0.00001   0.00000   0.00000
                          D3        D4        D5        D6
           D3           0.03612
           D4           0.00000   0.03612
           D5           0.00000   0.00000   0.01690
           D6           0.00000   0.00000   0.00000   0.01690
 ITU=  0  1  0
 Use linear search instead of GDIIS.
     Eigenvalues ---    0.00230   0.01160   0.02473   0.03612   0.08836
     Eigenvalues ---    0.16000   0.16000   0.16514   0.19128   0.56865
     Eigenvalues ---    0.57681   0.57681   0.576961000.000001000.00000
     Eigenvalues --- 1000.000001000.000001000.000001000.00000
 RFO step:  Lambda=-2.90111508D-03 EMin= 2.29999866D-03
 Quartic linear search produced a step of  0.13216.
 Iteration  1 RMS(Cart)=  0.03351019 RMS(Int)=  0.00124101
 Iteration  2 RMS(Cart)=  0.00118140 RMS(Int)=  0.00003401
 Iteration  3 RMS(Cart)=  0.00000022 RMS(Int)=  0.00003401
 Iteration  1 RMS(Cart)=  0.00000000 RMS(Int)=  0.00000000
 Variable       Old X    -DE/DX   Delta X   Delta X   Delta X     New X
                                 (Linear)    (Quad)   (Total)
    R1        7.34197   0.00410   0.00000   0.00000   0.00000   7.34197
    R2        3.65748  -0.00827   0.00839  -0.04883  -0.04044   3.61703
    R3        1.86707  -0.00906   0.00633  -0.01827  -0.01194   1.85513
    R4        1.86707  -0.00906   0.00633  -0.01828  -0.01195   1.85513
    R5        1.84794  -0.00606   0.00464  -0.01220  -0.00756   1.84038
    R6        1.84554  -0.00518   0.00443  -0.01054  -0.00611   1.83943
    A1        2.79253   0.00105   0.00000   0.00000   0.00000   2.79253
    A2        2.13385   0.00801   0.01967   0.04367   0.06334   2.19718
    A3        2.13384   0.00801   0.01967   0.04367   0.06334   2.19718
    A4        2.01550  -0.01603  -0.03933  -0.08734  -0.12668   1.88883
    A5        2.19073   0.00009   0.02468  -0.01134   0.01333   2.20406
    A6        2.19994   0.00025   0.02549  -0.01055   0.01494   2.21488
    A7        1.89252  -0.00034  -0.05017   0.02190  -0.02827   1.86424
    D1        1.57371   0.00007   0.00026   0.00988   0.01022   1.58393
    D2       -1.56801   0.00003   0.00024   0.00715   0.00731  -1.56070
    D3       -3.14052   0.00003   0.00009   0.00062   0.00070  -3.13981
    D4        0.00141   0.00005   0.00013   0.00151   0.00164   0.00306
    D5        3.14147  -0.00004  -0.00001  -0.00255  -0.00247   3.13900
    D6       -3.14131   0.00002   0.00002   0.00077   0.00078  -3.14053
         Item               Value     Threshold  Converged?
 Maximum Force            0.016028     0.000450     NO 
 RMS     Force            0.006332     0.000300     NO 
 Maximum Displacement     0.076255     0.001800     NO 
 RMS     Displacement     0.033759     0.001200     NO 
 Predicted change in Energy=-1.970502D-03
 GradGradGradGradGradGradGradGradGradGradGradGradGradGradGradGradGradGrad

                          Input orientation:                          
 ---------------------------------------------------------------------
 Center     Atomic      Atomic             Coordinates (Angstroms)
 Number     Number       Type             X           Y           Z
 ---------------------------------------------------------------------
      1         29           0       -0.031536    0.002087    0.009897
      2          8           0       -0.019646    0.000147    3.895081
      3          8           0        0.617594    0.000079   -1.790719
      4          1           0        0.074541    0.004281   -2.599135
      5          1           0        1.548032   -0.006295   -2.076587
      6          1           0       -0.024798    0.795149    4.470984
      7          1           0       -0.013387   -0.795449    4.470149
 ---------------------------------------------------------------------
                    Distance matrix (angstroms):
                    1          2          3          4          5
     1  Cu   0.000000
     2  O    3.885203   0.000000
     3  O    1.914051   5.721399   0.000000
     4  H    2.611189   6.494901   0.973889   0.000000
     5  H    2.616968   6.174016   0.973384   1.563440   0.000000
     6  H    4.531037   0.981692   6.344583   7.114909   6.781357
     7  H    4.531031   0.981690   6.342671   7.114920   6.776471
                    6          7
     6  H    0.000000
     7  H    1.590640   0.000000
 Stoichiometry    CuH4O2(2+,2)
 Framework group  C1[X(CuH4O2)]
 Deg. of freedom    15
 Full point group                 C1      NOp   1
 Largest Abelian subgroup         C1      NOp   1
 Largest concise Abelian subgroup C1      NOp   1
                         Standard orientation:                         
 ---------------------------------------------------------------------
 Center     Atomic      Atomic             Coordinates (Angstroms)
 Number     Number       Type             X           Y           Z
 ---------------------------------------------------------------------
      1         29           0        0.413244    0.177759   -0.001343
      2          8           0       -3.457533   -0.156726    0.001171
      3          8           0        2.261547   -0.319589    0.002523
      4          1           0        3.022074    0.288727   -0.000758
      5          1           0        2.623694   -1.223085    0.007117
      6          1           0       -4.031796   -0.189731    0.796691
      7          1           0       -4.030173   -0.220403   -0.793652
 ---------------------------------------------------------------------
 Rotational constants (GHZ):     73.0897446      1.5142987      1.4947485
 Standard basis: 6-311G(d) (5D, 7F)
 There are   102 symmetry adapted cartesian basis functions of A   symmetry.
 There are    94 symmetry adapted basis functions of A   symmetry.
    94 basis functions,   165 primitive gaussians,   102 cartesian basis functions
    24 alpha electrons       23 beta electrons
       nuclear repulsion energy       141.1435427118 Hartrees.
 NAtoms=    7 NActive=    7 NUniq=    7 SFac= 1.00D+00 NAtFMM=   60 NAOKFM=F Big=F
 Integral buffers will be    131072 words long.
 Raffenetti 2 integral format.
 Two-electron integral symmetry is turned on.
 One-electron integrals computed using PRISM.
 NBasis=    94 RedAO= T EigKep=  9.37D-03  NBF=    94
 NBsUse=    94 1.00D-06 EigRej= -1.00D+00 NBFU=    94
 Initial guess from the checkpoint file:  "pescuh2o2.chk"
 B after Tr=     0.000000    0.000000    0.000000
         Rot=    0.999993    0.003613    0.000007    0.000426 Ang=   0.42 deg.
 Initial guess <Sx>= 0.0000 <Sy>= 0.0000 <Sz>= 0.5000 <S**2>= 0.7523 S= 0.5012
 ExpMin= 4.08D-02 ExpMax= 3.37D+05 ExpMxC= 1.14D+04 IAcc=2 IRadAn=         4 AccDes= 0.00D+00
 Harris functional with IExCor=  402 and IRadAn=       4 diagonalized for initial guess.
 HarFok:  IExCor=  402 AccDes= 0.00D+00 IRadAn=         4 IDoV= 1 UseB2=F ITyADJ=14
 ICtDFT=  3500011 ScaDFX=  1.000000  1.000000  1.000000  1.000000
 FoFCou: FMM=F IPFlag=           0 FMFlag=      100000 FMFlg1=           0
         NFxFlg=           0 DoJE=T BraDBF=F KetDBF=T FulRan=T
         wScrn=  0.000000 ICntrl=     500 IOpCl=  0 I1Cent=   200000004 NGrid=           0
         NMat0=    1 NMatS0=      1 NMatT0=    0 NMatD0=    1 NMtDS0=    0 NMtDT0=    0
 Petite list used in FoFCou.
 Keep R1 and R2 ints in memory in canonical form, NReq=21960509.
 Requested convergence on RMS density matrix=1.00D-08 within  64 cycles.
 Requested convergence on MAX density matrix=1.00D-06.
 Requested convergence on             energy=1.00D-06.
 No special actions if energy rises.
 SCF Done:  E(UB3LYP) =  -1792.54410525     A.U. after   24 cycles
            NFock= 24  Conv=0.68D-08     -V/T= 2.0007
 <Sx>= 0.0000 <Sy>= 0.0000 <Sz>= 0.5000 <S**2>= 0.7523 S= 0.5011
 <L.S>= 0.000000000000E+00
 Annihilation of the first spin contaminant:
 S**2 before annihilation     0.7523,   after     0.7500
 QCSCF skips out because SCF is already converged.
 Calling FoFJK, ICntrl=      2127 FMM=F ISym2X=0 I1Cent= 0 IOpClX= 1 NMat=1 NMatS=1 NMatT=0.
 ***** Axes restored to original set *****
 -------------------------------------------------------------------
 Center     Atomic                   Forces (Hartrees/Bohr)
 Number     Number              X              Y              Z
 -------------------------------------------------------------------
      1       29           0.001889892   -0.000005353   -0.007922360
      2        8          -0.000071980   -0.000008228    0.001944252
      3        8           0.000014826    0.000023861   -0.001504516
      4        1          -0.001407300    0.000025277    0.002654113
      5        1          -0.000427495   -0.000037648    0.002845123
      6        1          -0.000018288   -0.002071186    0.000991694
      7        1           0.000020345    0.002073277    0.000991694
 -------------------------------------------------------------------
 Cartesian Forces:  Max     0.007922360 RMS     0.002184856

 GradGradGradGradGradGradGradGradGradGradGradGradGradGradGradGradGradGrad
 Berny optimization.
 Using GEDIIS/GDIIS optimizer.
 FormGI is forming the generalized inverse of G from B-inverse, IUseBI=4.
 Internal  Forces:  Max     0.004363202 RMS     0.001870120
 Search for a local minimum.
 Step number   4 out of a maximum of  100 on scan point     1 out of    26
 All quantities printed in internal units (Hartrees-Bohrs-Radians)
 Mixed Optimization -- RFO/linear search
 Update second derivatives using D2CorX and points    3    4
 DE= -2.17D-03 DEPred=-1.97D-03 R= 1.10D+00
 TightC=F SS=  1.41D+00  RLast= 1.66D-01 DXNew= 8.4853D-01 4.9708D-01
 Trust test= 1.10D+00 RLast= 1.66D-01 DXMaxT set to 5.05D-01
 The second derivative matrix:
                          R1        R2        R3        R4        R5
           R1           0.00859
           R2           0.00010   0.17576
           R3           0.00001  -0.01190   0.57002
           R4           0.00001  -0.01191  -0.00681   0.56999
           R5           0.00005  -0.00909  -0.00696  -0.00697   0.57064
           R6           0.00006  -0.00791  -0.00641  -0.00642  -0.00563
           A1           0.00000   0.00013   0.00025   0.00025   0.00015
           A2           0.00039   0.00804  -0.00277  -0.00275  -0.00092
           A3           0.00039   0.00805  -0.00275  -0.00274  -0.00091
           A4          -0.00078  -0.01609   0.00552   0.00549   0.00183
           A5           0.00039  -0.00312  -0.00888  -0.00887  -0.00624
           A6           0.00040  -0.00302  -0.00907  -0.00906  -0.00636
           A7          -0.00079   0.00614   0.01795   0.01794   0.01260
           D1           0.00000   0.00005   0.00004   0.00004   0.00003
           D2           0.00000   0.00004   0.00005   0.00005   0.00003
           D3           0.00000   0.00006   0.00007   0.00007   0.00004
           D4           0.00000   0.00012   0.00011   0.00011   0.00008
           D5           0.00000  -0.00009  -0.00008  -0.00008  -0.00006
           D6           0.00000   0.00002   0.00001   0.00001   0.00001
                          R6        A1        A2        A3        A4
           R6           0.57166
           A1           0.00013   0.25000
           A2          -0.00126  -0.00017   0.15216
           A3          -0.00126  -0.00017  -0.00785   0.15214
           A4           0.00252   0.00034   0.01569   0.01571   0.12859
           A5          -0.00580  -0.00001  -0.00144  -0.00145   0.00289
           A6          -0.00594  -0.00002  -0.00178  -0.00178   0.00355
           A7           0.01174   0.00003   0.00322   0.00323  -0.00645
           D1           0.00002   0.00000  -0.00004  -0.00004   0.00007
           D2           0.00003   0.00000  -0.00004  -0.00004   0.00008
           D3           0.00004   0.00000  -0.00007  -0.00007   0.00014
           D4           0.00006   0.00000  -0.00012  -0.00012   0.00025
           D5          -0.00005   0.00000   0.00006   0.00006  -0.00012
           D6           0.00001   0.00000  -0.00001  -0.00001   0.00003
                          A5        A6        A7        D1        D2
           A5           0.15675
           A6          -0.00346   0.15631
           A7           0.00671   0.00715   0.14614
           D1           0.00000   0.00000  -0.00001   0.00230
           D2           0.00000   0.00000   0.00000   0.00000   0.00230
           D3          -0.00001  -0.00001   0.00002   0.00000   0.00000
           D4          -0.00001  -0.00001   0.00003   0.00000   0.00000
           D5          -0.00002  -0.00001   0.00003   0.00000   0.00000
           D6           0.00000   0.00000   0.00000   0.00000   0.00000
                          D3        D4        D5        D6
           D3           0.03612
           D4           0.00000   0.03612
           D5           0.00000   0.00000   0.01690
           D6           0.00000   0.00000   0.00000   0.01690
 ITU=  1  0  1  0
 Use linear search instead of GDIIS.
     Eigenvalues ---    0.00230   0.01095   0.02492   0.03612   0.10520
     Eigenvalues ---    0.13479   0.16000   0.16000   0.18319   0.55546
     Eigenvalues ---    0.57680   0.57681   0.577921000.000001000.00000
     Eigenvalues --- 1000.000001000.000001000.000001000.00000
 RFO step:  Lambda=-2.55823982D-04 EMin= 2.29955701D-03
 Quartic linear search produced a step of  0.16349.
 Iteration  1 RMS(Cart)=  0.01424652 RMS(Int)=  0.00009144
 Iteration  2 RMS(Cart)=  0.00008600 RMS(Int)=  0.00001031
 Iteration  3 RMS(Cart)=  0.00000000 RMS(Int)=  0.00001031
 Iteration  1 RMS(Cart)=  0.00000000 RMS(Int)=  0.00000000
 Variable       Old X    -DE/DX   Delta X   Delta X   Delta X     New X
                                 (Linear)    (Quad)   (Total)
    R1        7.34197   0.00392   0.00000   0.00000   0.00000   7.34197
    R2        3.61703  -0.00436  -0.00661  -0.02288  -0.02950   3.58754
    R3        1.85513  -0.00110  -0.00195  -0.00152  -0.00348   1.85165
[...]
           A6         125.00524 124.98553 124.98373 125.00823 125.05072
           A7         108.58983 108.58014 108.61371 108.64595 108.66372
           D1          92.92531  93.55432  94.19082  94.17013  94.38265
           D2         -92.78586 -93.64848 -94.01942 -94.48420 -94.06257
           D3         -82.60490 -82.30111 -82.55334 -82.39655 -83.28152
           D4          82.29539  82.40511  82.25952  82.86140  82.69129
           D5         175.10769 173.81339 172.94070 172.57180 172.77179
           D6         166.99002 166.82139 166.90979 167.29257 167.91055
                          21        22        23        24        25
     Eigenvalues --  **************************************************
           R1           1.88520   1.78520   1.68520   1.58520   1.48520
           R2           1.84871   1.84531   1.85317   1.84648   1.84171
           R3           0.97762   0.97988   0.98102   0.98528   0.99054
           R4           0.97757   0.97991   0.98101   0.98526   0.99053
           R5           0.97649   0.97688   0.97785   0.97780   0.97760
           R6           0.97641   0.97689   0.97784   0.97780   0.97757
           A1         160.00000 160.00000 160.00000 160.00000 160.00000
           A2         125.87012 126.25945 125.86837 126.66940 127.42239
           A3         125.78860 126.25644 125.96693 126.58107 127.44943
           A4         107.92528 107.33980 107.30844 106.09034 104.60280
           A5         125.22343 125.22702 126.04258 126.01092 125.93068
           A6         125.01262 125.24278 126.04535 126.00172 125.93865
           A7         108.65421 108.49578 107.89017 107.97401 108.04814
           D1         100.74891  92.41501  84.54482  84.76995  85.18720
           D2         -87.56007 -92.51251 -83.49660 -84.60853 -85.19473
           D3         -96.41844 -83.43113 -91.26262 -89.39374 -88.13099
           D4          70.15379  83.58038  90.64882  89.11474  88.16541
           D5         172.92288 175.83885-169.88314-171.13849-172.12162
           D6         168.41981 168.83946-178.37606 178.73149 176.84682
                          26
     Eigenvalues --  **********
           R1           1.38520
           R2           1.83917
           R3           0.99778
           R4           0.99774
           R5           0.97732
           R6           0.97732
           A1         160.00000
           A2         128.43411
           A3         128.42117
           A4         102.66819
           A5         125.88396
           A6         125.87951
           A7         108.09185
           D1          85.35426
           D2         -85.32256
           D3         -87.55264
           D4          87.54738
           D5        -172.52518
           D6         175.82468
                          Input orientation:                          
 ---------------------------------------------------------------------
 Center     Atomic      Atomic             Coordinates (Angstroms)
 Number     Number       Type             X           Y           Z
 ---------------------------------------------------------------------
      1         29           0        0.039679   -0.213374    1.059098
      2          8           0        0.052603   -0.057880    2.435485
      3          8           0        0.502622   -0.002831   -0.708362
      4          1           0        0.158492    0.683735   -1.312807
      5          1           0        1.183816   -0.514766   -1.186953
      6          1           0       -0.398191    0.642551    2.984793
      7          1           0        0.611778   -0.537436    3.108416
 ---------------------------------------------------------------------
                    Distance matrix (angstroms):
                    1          2          3          4          5
     1  Cu   0.000000
     2  O    1.385203   0.000000
     3  O    1.839174   3.176369   0.000000
     4  H    2.538672   3.822421   0.977319   0.000000
     5  H    2.538628   3.822361   0.977319   1.582255   0.000000
     6  H    2.152357   0.997777   3.855824   4.333701   4.609295
     7  H    2.152213   0.997741   3.855583   4.609116   4.333352
                    6          7
     6  H    0.000000
     7  H    1.558105   0.000000
 Stoichiometry    CuH4O2(2+,2)
 Framework group  C1[X(CuH4O2)]
 Deg. of freedom    15
 Full point group                 C1      NOp   1
 Largest Abelian subgroup         C1      NOp   1
 Largest concise Abelian subgroup C1      NOp   1
                         Standard orientation:                         
 ---------------------------------------------------------------------
 Center     Atomic      Atomic             Coordinates (Angstroms)
 Number     Number       Type             X           Y           Z
 ---------------------------------------------------------------------
      1         29           0       -0.093772   -0.000040    0.123541
      2          8           0       -1.449033    0.000050   -0.162912
      3          8           0        1.727209    0.000035   -0.134501
      4          1           0        2.289649   -0.791038   -0.248592
      5          1           0        2.289580    0.791217   -0.248177
      6          1           0       -2.042769   -0.778906   -0.353346
      7          1           0       -2.042481    0.779199   -0.353262
 ---------------------------------------------------------------------
 Rotational constants (GHZ):    112.2793884      4.9142498      4.8919530

 **********************************************************************

            Population analysis using the SCF density.

 **********************************************************************

 Orbital symmetries:
 Alpha Orbitals:
       Occupied  (A) (A) (A) (A) (A) (A) (A) (A) (A) (A) (A) (A)
                 (A) (A) (A) (A) (A) (A) (A) (A) (A) (A) (A) (A)
       Virtual   (A) (A) (A) (A) (A) (A) (A) (A) (A) (A) (A) (A)
                 (A) (A) (A) (A) (A) (A) (A) (A) (A) (A) (A) (A)
                 (A) (A) (A) (A) (A) (A) (A) (A) (A) (A) (A) (A)
                 (A) (A) (A) (A) (A) (A) (A) (A) (A) (A) (A) (A)
                 (A) (A) (A) (A) (A) (A) (A) (A) (A) (A) (A) (A)
                 (A) (A) (A) (A) (A) (A) (A) (A) (A) (A)
 Beta  Orbitals:
       Occupied  (A) (A) (A) (A) (A) (A) (A) (A) (A) (A) (A) (A)
                 (A) (A) (A) (A) (A) (A) (A) (A) (A) (A) (A)
       Virtual   (A) (A) (A) (A) (A) (A) (A) (A) (A) (A) (A) (A)
                 (A) (A) (A) (A) (A) (A) (A) (A) (A) (A) (A) (A)
                 (A) (A) (A) (A) (A) (A) (A) (A) (A) (A) (A) (A)
                 (A) (A) (A) (A) (A) (A) (A) (A) (A) (A) (A) (A)
                 (A) (A) (A) (A) (A) (A) (A) (A) (A) (A) (A) (A)
                 (A) (A) (A) (A) (A) (A) (A) (A) (A) (A) (A)
 The electronic state is 2-A.
 Alpha  occ. eigenvalues -- -323.58923 -39.41336 -34.64568 -34.63432 -34.61167
 Alpha  occ. eigenvalues --  -19.72044 -19.62923  -4.94812  -3.48389  -3.44463
 Alpha  occ. eigenvalues --   -3.40017  -1.62481  -1.50961  -1.14623  -1.12953
 Alpha  occ. eigenvalues --   -1.04220  -1.02398  -0.95120  -0.89546  -0.89361
 Alpha  occ. eigenvalues --   -0.88185  -0.86336  -0.82107  -0.80644
 Alpha virt. eigenvalues --   -0.45035  -0.37440  -0.33688  -0.29837  -0.27139
 Alpha virt. eigenvalues --   -0.19707  -0.18151  -0.04600  -0.02704   0.01961
 Alpha virt. eigenvalues --    0.14723   0.24625   0.27667   0.28987   0.39040
 Alpha virt. eigenvalues --    0.40648   0.59445   0.69486   0.86822   0.88108
 Alpha virt. eigenvalues --    0.91509   0.95609   1.01092   1.08756   1.20631
 Alpha virt. eigenvalues --    1.54950   1.55258   1.59394   1.59661   1.64189
 Alpha virt. eigenvalues --    2.13892   2.14842   2.22319   2.25429   2.36364
 Alpha virt. eigenvalues --    2.49028   2.63515   2.65792   2.67713   2.92863
 Alpha virt. eigenvalues --    3.16947   3.37870   3.38688   3.38717   3.38728
 Alpha virt. eigenvalues --    3.53719   3.62234   3.70995   4.23594   4.25685
 Alpha virt. eigenvalues --    4.41153   4.48403   4.50173   5.37504   6.57477
 Alpha virt. eigenvalues --    6.57625   6.67482   6.78007   7.06075   8.78409
 Alpha virt. eigenvalues --    8.87719   9.53114  31.52869  42.18170  42.25927
 Alpha virt. eigenvalues --   42.72096  49.19809  49.23548 183.55370 978.82502
  Beta  occ. eigenvalues -- -323.58912 -39.39284 -34.62139 -34.61435 -34.60601
  Beta  occ. eigenvalues --  -19.71431 -19.62581  -4.90696  -3.42122  -3.39222
  Beta  occ. eigenvalues --   -3.38620  -1.60996  -1.50179  -1.13454  -1.12350
  Beta  occ. eigenvalues --   -1.02131  -0.97519  -0.94232  -0.87383  -0.87345
  Beta  occ. eigenvalues --   -0.86251  -0.80956  -0.80418
  Beta virt. eigenvalues --   -0.65241  -0.44564  -0.37189  -0.33538  -0.29561
  Beta virt. eigenvalues --   -0.27059  -0.19512  -0.18140  -0.04537  -0.02487
  Beta virt. eigenvalues --    0.02067   0.16428   0.25422   0.28712   0.29279
  Beta virt. eigenvalues --    0.39269   0.40896   0.60192   0.70099   0.88232
  Beta virt. eigenvalues --    0.88828   0.92492   0.99617   1.01545   1.09849
  Beta virt. eigenvalues --    1.21169   1.55017   1.56757   1.59526   1.59659
  Beta virt. eigenvalues --    1.64356   2.15301   2.16597   2.23734   2.26419
  Beta virt. eigenvalues --    2.37743   2.50628   2.64030   2.66164   2.68820
  Beta virt. eigenvalues --    2.93064   3.18737   3.39378   3.39510   3.40821
  Beta virt. eigenvalues --    3.41408   3.57019   3.63882   3.71810   4.24919
  Beta virt. eigenvalues --    4.28214   4.41727   4.48831   4.50466   5.38779
  Beta virt. eigenvalues --    6.59131   6.59306   6.75244   6.79627   7.07406
  Beta virt. eigenvalues --    8.81683   8.88675   9.56654  31.55585  42.20862
  Beta virt. eigenvalues --   42.26744  42.75074  49.20394  49.23914 183.56404
  Beta virt. eigenvalues --  978.82712
          Condensed to atoms (all electrons):
               1          2          3          4          5          6
     1  Cu  27.458619   0.057121   0.111566  -0.006307  -0.006308  -0.013629
     2  O    0.057121   8.354272  -0.005891   0.000011   0.000011   0.225231
     3  O    0.111566  -0.005891   8.290727   0.244211   0.244211   0.000125
     4  H   -0.006307   0.000011   0.244211   0.206930  -0.014652   0.000049
     5  H   -0.006308   0.000011   0.244211  -0.014652   0.206938  -0.000007
     6  H   -0.013629   0.225231   0.000125   0.000049  -0.000007   0.208292
     7  H   -0.013634   0.225237   0.000126  -0.000007   0.000049  -0.014557
               7
     1  Cu  -0.013634
     2  O    0.225237
     3  O    0.000126
     4  H   -0.000007
     5  H    0.000049
     6  H   -0.014557
     7  H    0.208309
          Atomic-Atomic Spin Densities.
               1          2          3          4          5          6
     1  Cu   0.750462  -0.058654  -0.015440   0.000301   0.000301   0.000529
     2  O   -0.058654   0.298230  -0.001696   0.000004   0.000004  -0.002503
     3  O   -0.015440  -0.001696   0.130205  -0.001401  -0.001401  -0.000013
     4  H    0.000301   0.000004  -0.001401  -0.002407   0.000187  -0.000002
     5  H    0.000301   0.000004  -0.001401   0.000187  -0.002407   0.000000
     6  H    0.000529  -0.002503  -0.000013  -0.000002   0.000000  -0.005989
     7  H    0.000529  -0.002503  -0.000013   0.000000  -0.000002   0.000721
               7
     1  Cu   0.000529
     2  O   -0.002503
     3  O   -0.000013
     4  H    0.000000
     5  H   -0.000002
     6  H    0.000721
     7  H   -0.005990
 Mulliken charges and spin densities:
               1          2
     1  Cu   1.412571   0.678028
     2  O   -0.855993   0.232881
     3  O   -0.885075   0.110242
     4  H    0.569765  -0.003318
     5  H    0.569758  -0.003317
     6  H    0.594496  -0.007257
     7  H    0.594478  -0.007259
 Sum of Mulliken charges =   2.00000   1.00000
 Mulliken charges and spin densities with hydrogens summed into heavy atoms:
               1          2
     1  Cu   1.412571   0.678028
     2  O    0.332981   0.218366
     3  O    0.254448   0.103607
 Electronic spatial extent (au):  <R**2>=            244.6101
 Charge=              2.0000 electrons
 Dipole moment (field-independent basis, Debye):
    X=             -0.8779    Y=              0.0006    Z=             -1.3331  Tot=              1.5962
 Quadrupole moment (field-independent basis, Debye-Ang):
   XX=             10.8833   YY=            -14.5598   ZZ=            -20.8755
   XY=              0.0001   XZ=              0.9660   YZ=              0.0008
 Traceless Quadrupole moment (field-independent basis, Debye-Ang):
   XX=             19.0673   YY=             -6.3758   ZZ=            -12.6915
   XY=              0.0001   XZ=              0.9660   YZ=              0.0008
 Octapole moment (field-independent basis, Debye-Ang**2):
  XXX=              5.0505  YYY=              0.0016  ZZZ=              2.6929  XYY=             -0.1985
  XXY=              0.0012  XXZ=            -11.6356  XZZ=             -2.1381  YZZ=             -0.0008
  YYZ=             -1.2112  XYZ=              0.0020
 Hexadecapole moment (field-independent basis, Debye-Ang**3):
 XXXX=            -23.0469 YYYY=            -12.5574 ZZZZ=            -17.2494 XXXY=              0.0048
 XXXZ=              1.3198 YYYX=             -0.0006 YYYZ=              0.0002 ZZZX=              0.7179
 ZZZY=              0.0005 XXYY=             -6.2116 XXZZ=            -36.3180 YYZZ=             -5.0930
 XXYZ=              0.0055 YYXZ=              0.6171 ZZXY=             -0.0009
 N-N= 2.151019837403D+02 E-N=-4.689992238496D+03  KE= 1.792484233308D+03
                          Isotropic Fermi Contact Couplings
        Atom                 a.u.       MegaHertz       Gauss      10(-4) cm-1
     1  Cu(63)            -0.09772    -115.90583     -41.35808     -38.66202
     2  O(17)              0.03780     -22.91265      -8.17580      -7.64284
     3  O(17)              0.02797     -16.95473      -6.04987      -5.65549
     4  H(1)              -0.00177      -7.89531      -2.81724      -2.63359
     5  H(1)              -0.00177      -7.89281      -2.81635      -2.63276
     6  H(1)              -0.00359     -16.02584      -5.71842      -5.34564
     7  H(1)              -0.00359     -16.03213      -5.72066      -5.34774
 --------------------------------------------------------
       Center         ----  Spin Dipole Couplings  ----
                      3XX-RR        3YY-RR        3ZZ-RR
 --------------------------------------------------------
     1   Atom        1.852810     -3.462688      1.609878
     2   Atom       -0.069376     -0.503371      0.572747
     3   Atom       -0.100337     -0.278520      0.378856
     4   Atom        0.008459      0.005560     -0.014019
     5   Atom        0.008455      0.005570     -0.014025
     6   Atom        0.010577      0.010122     -0.020698
     7   Atom        0.010557      0.010148     -0.020705
 --------------------------------------------------------
                        XY            XZ            YZ
 --------------------------------------------------------
     1   Atom       -0.000119      0.913006     -0.000414
     2   Atom       -0.000025     -0.586137      0.000032
     3   Atom       -0.000063      0.296041     -0.000139
     4   Atom       -0.023001     -0.002615      0.005781
     5   Atom        0.023002     -0.002604     -0.005772
     6   Atom        0.038749      0.006715      0.016021
     7   Atom       -0.038751      0.006706     -0.016019
 --------------------------------------------------------


 ---------------------------------------------------------------------------------
              Anisotropic Spin Dipole Couplings in Principal Axis System
 ---------------------------------------------------------------------------------

       Atom             a.u.   MegaHertz   Gauss  10(-4) cm-1        Axes

              Baa    -3.4627  -490.253  -174.935  -163.531  0.0000  1.0000  0.0001
     1 Cu(63) Bbb     0.8103   114.723    40.936    38.267 -0.6588 -0.0001  0.7523
              Bcc     2.6524   375.531   133.999   125.264  0.7523 -0.0001  0.6588
 
              Baa    -0.5034    36.424    12.997    12.150  0.0001  1.0000  0.0000
     2 O(17)  Bbb    -0.4166    30.147    10.757    10.056  0.8604 -0.0001  0.5097
              Bcc     0.9200   -66.570   -23.754   -22.205 -0.5097  0.0000  0.8604
 
              Baa    -0.2785    20.153     7.191     6.722  0.0000  1.0000  0.0002
     3 O(17)  Bbb    -0.2416    17.481     6.238     5.831  0.9025  0.0001 -0.4306
              Bcc     0.5201   -37.635   -13.429   -12.554  0.4306 -0.0002  0.9025
 
              Baa    -0.0179    -9.548    -3.407    -3.185  0.4876  0.6277 -0.6069
     4 H(1)   Bbb    -0.0129    -6.898    -2.461    -2.301  0.4965  0.3725  0.7841
              Bcc     0.0308    16.447     5.869     5.486  0.7182 -0.6836 -0.1300
 
              Baa    -0.0179    -9.548    -3.407    -3.185 -0.4875  0.6273  0.6073
     5 H(1)   Bbb    -0.0129    -6.898    -2.461    -2.301  0.4966 -0.3729  0.7838
              Bcc     0.0308    16.446     5.868     5.486  0.7181  0.6837 -0.1297
 
              Baa    -0.0331   -17.675    -6.307    -5.896 -0.4904  0.6531 -0.5769
     6 H(1)   Bbb    -0.0195   -10.412    -3.715    -3.473 -0.5450  0.2867  0.7879
              Bcc     0.0526    28.087    10.022     9.369  0.6800  0.7009  0.2154
 
              Baa    -0.0331   -17.676    -6.307    -5.896  0.4906  0.6529  0.5771
     7 H(1)   Bbb    -0.0195   -10.412    -3.715    -3.473 -0.5451 -0.2867  0.7878
              Bcc     0.0526    28.088    10.022     9.369 -0.6798  0.7011 -0.2153
 

 ---------------------------------------------------------------------------------

 B after Tr=     0.109746    0.386257   -1.030092
         Rot=    0.989293   -0.020797    0.009673    0.144127 Ang= -16.78 deg.
 Atom   6 needs variable   3=   0.9977767318 but is    0.9773186329
 Input z-matrix variables are not compatible with final structure.
 1\1\GINC-MILLENNIUM-FALCON\Scan\UB3LYP\6-311G(d)\Cu1H4O2(2+,2)\JAKE\18
 -Jun-2016\0\\#opt=(modredundant,maxcycles=350) B3LYP/6-311G* scf=xqc\\
 cu2(h20)2\\2,2\Cu,-0.0282835876,-0.2871717976,1.0542436165\O,-0.015359
 3856,-0.1316771939,2.4306308238\O,0.4346588455,-0.0766283724,-0.713216
 4506\H,0.0905291594,0.6099373729,-1.3176616067\H,1.1158529545,-0.58856
 34341,-1.1918075058\H,-0.4661540934,0.5687536306,2.9799387503\H,0.5438
 156825,-0.6112335694,3.1035621802\\Version=EM64L-G09RevD.01\State=2-A\
 HF=-1792.5479273,-1792.5471455,-1792.5465896,-1792.5463025,-1792.54603
 61,-1792.5460094,-1792.5462822,-1792.5469287,-1792.5480608,-1792.54976
 81,-1792.5521378,-1792.5552751,-1792.5592522,-1792.564131,-1792.569944
 9,-1792.5766319,-1792.5839645,-1792.591572,-1792.5988147,-1792.6047563
 ,-1792.6080818,-1792.6066056,-1792.5980388,-1792.5757468,-1792.531679,
 -1792.4525265\S2=0.761401,0.761215,0.760962,0.760622,0.760225,0.759691
 ,0.759057,0.758318,0.757485,0.756624,0.755759,0.754924,0.754152,0.7534
 55,0.752839,0.752328,0.751938,0.751668,0.751497,0.751405,0.751368,0.75
 1427,0.751529,0.751622,0.751706,0.751773\S2-1=0.,0.,0.,0.,0.,0.,0.,0.,
 0.,0.,0.,0.,0.,0.,0.,0.,0.,0.,0.,0.,0.,0.,0.,0.,0.,0.\S2A=0.750018,0.7
 50017,0.750016,0.750015,0.750014,0.750013,0.750012,0.75001,0.750009,0.
 750008,0.750006,0.750005,0.750004,0.750003,0.750003,0.750002,0.750002,
 0.750001,0.750001,0.750001,0.750001,0.750001,0.750001,0.750002,0.75000
 2,0.750002\RMSD=3.228e-09,5.484e-09,8.977e-10,2.344e-09,3.386e-09,6.72
 7e-09,2.685e-09,2.557e-09,1.582e-09,5.966e-09,1.598e-09,1.191e-09,5.26
 1e-09,7.000e-09,1.699e-09,8.177e-09,4.459e-09,8.058e-10,3.376e-09,2.34
 7e-09,9.267e-10,1.221e-09,1.798e-09,2.267e-09,7.933e-09,4.740e-09\PG=C
 01 [X(Cu1H4O2)]\\@


 THE FIRST MORNING OF CREATION WROTE WHAT THE LAST DAWN OF
 RECKONING SHALL READ. -- OMAR KHAYYAM
 Job cpu time:       0 days  1 hours 14 minutes 15.1 seconds.
 File lengths (MBytes):  RWF=     10 Int=      0 D2E=      0 Chk=      3 Scr=      1
 Normal termination of Gaussian 09 at Sat Jun 18 18:17:56 2016.
