 Entering Gaussian System, Link 0=g09
 Input=2coord_b3lyp_A_F_170.inp
 Output=2coord_b3lyp_A_F_170.log
 Initial command:
 /usr/local/g09/l1.exe "./Gau-24009.inp" -scrdir="./"
 Entering Link 1 = /usr/local/g09/l1.exe PID=     24011.
  
 Copyright (c) 1988,1990,1992,1993,1995,1998,2003,2009,2013,
            Gaussian, Inc.  All Rights Reserved.
  
 This is part of the Gaussian(R) 09 program.  It is based on
 the Gaussian(R) 03 system (copyright 2003, Gaussian, Inc.),
 the Gaussian(R) 98 system (copyright 1998, Gaussian, Inc.),
 the Gaussian(R) 94 system (copyright 1995, Gaussian, Inc.),
 the Gaussian 92(TM) system (copyright 1992, Gaussian, Inc.),
 the Gaussian 90(TM) system (copyright 1990, Gaussian, Inc.),
 the Gaussian 88(TM) system (copyright 1988, Gaussian, Inc.),
 the Gaussian 86(TM) system (copyright 1986, Carnegie Mellon
 University), and the Gaussian 82(TM) system (copyright 1983,
 Carnegie Mellon University). Gaussian is a federally registered
 trademark of Gaussian, Inc.
  
 This software contains proprietary and confidential information,
 including trade secrets, belonging to Gaussian, Inc.
  
 This software is provided under written license and may be
 used, copied, transmitted, or stored only in accord with that
 written license.
  
 The following legend is applicable only to US Government
 contracts under FAR:
  
                    RESTRICTED RIGHTS LEGEND
  
 Use, reproduction and disclosure by the US Government is
 subject to restrictions as set forth in subparagraphs (a)
 and (c) of the Commercial Computer Software - Restricted
 Rights clause in FAR 52.227-19.
  
 Gaussian, Inc.
 340 Quinnipiac St., Bldg. 40, Wallingford CT 06492
  
  
 ---------------------------------------------------------------
 Warning -- This program may not be used in any manner that
 competes with the business of Gaussian, Inc. or will provide
 assistance to any competitor of Gaussian, Inc.  The licensee
 of this program is prohibited from giving any competitor of
 Gaussian, Inc. access to this program.  By using this program,
 the user acknowledges that Gaussian, Inc. is engaged in the
 business of creating and licensing software in the field of
 computational chemistry and represents and warrants to the
 licensee that it is not a competitor of Gaussian, Inc. and that
 it will not use this program in any manner prohibited above.
 ---------------------------------------------------------------
  

 Cite this work as:
 Gaussian 09, Revision D.01,
 M. J. Frisch, G. W. Trucks, H. B. Schlegel, G. E. Scuseria, 
 M. A. Robb, J. R. Cheeseman, G. Scalmani, V. Barone, B. Mennucci, 
 G. A. Petersson, H. Nakatsuji, M. Caricato, X. Li, H. P. Hratchian, 
 A. F. Izmaylov, J. Bloino, G. Zheng, J. L. Sonnenberg, M. Hada, 
 M. Ehara, K. Toyota, R. Fukuda, J. Hasegawa, M. Ishida, T. Nakajima, 
 Y. Honda, O. Kitao, H. Nakai, T. Vreven, J. A. Montgomery, Jr., 
 J. E. Peralta, F. Ogliaro, M. Bearpark, J. J. Heyd, E. Brothers, 
 K. N. Kudin, V. N. Staroverov, T. Keith, R. Kobayashi, J. Normand, 
 K. Raghavachari, A. Rendell, J. C. Burant, S. S. Iyengar, J. Tomasi, 
 M. Cossi, N. Rega, J. M. Millam, M. Klene, J. E. Knox, J. B. Cross, 
 V. Bakken, C. Adamo, J. Jaramillo, R. Gomperts, R. E. Stratmann, 
 O. Yazyev, A. J. Austin, R. Cammi, C. Pomelli, J. W. Ochterski, 
 R. L. Martin, K. Morokuma, V. G. Zakrzewski, G. A. Voth, 
 P. Salvador, J. J. Dannenberg, S. Dapprich, A. D. Daniels, 
 O. Farkas, J. B. Foresman, J. V. Ortiz, J. Cioslowski, 
 and D. J. Fox, Gaussian, Inc., Wallingford CT, 2013.
 
 ******************************************
 Gaussian 09:  EM64L-G09RevD.01 24-Apr-2013
                18-Jun-2016 
 ******************************************
 %mem=2GB
 %nprocshared=1
 Will use up to    1 processors via shared memory.
 %chk=pescuh2o2.chk
 -------------------------------------------------------
 #opt=(modredundant,maxcycles=350) B3LYP/6-311G* scf=xqc
 -------------------------------------------------------
 1/6=350,14=-1,18=120,19=15,26=3,38=1/1,3;
 2/9=110,12=2,17=6,18=5,40=1/2;
 3/5=4,6=6,7=1,11=2,16=1,25=1,30=1,71=1,74=-5/1,2,3;
 4//1;
 5/5=2,8=3,13=1,38=5/2,8;
 6/7=2,8=2,9=2,10=2,28=1/1;
 7//1,2,3,16;
 1/6=350,14=-1,18=20,19=15,26=3/3(2);
 2/9=110/2;
 99//99;
 2/9=110/2;
 3/5=4,6=6,7=1,11=2,16=1,25=1,30=1,71=1,74=-5/1,2,3;
 4/5=5,16=3,69=1/1;
 5/5=2,8=3,13=1,38=5/2,8;
 7//1,2,3,16;
 1/6=350,14=-1,18=20,19=15,26=3/3(-5);
 2/9=110/2;
 6/7=2,8=2,9=2,10=2,19=2,28=1/1;
 99/9=1/99;
 ---------
 cu2(h20)2
 ---------
 Symbolic Z-matrix:
 Charge =  2 Multiplicity = 2
 Cu
 O                    1    A
 O                    1    B        2    C
 H                    3    D        1    E        2    F        0
 H                    3    D        1    E        4    G        0
 H                    2    D        1    E        4    F        0
 H                    2    D        1    E        6    G        0
       Variables:
  A                     3.8852                   
  B                     1.88506                  
  C                   170.                       
  D                     0.95                     
  E                   109.471                    
  F                   180.                       
  G                   120.                       
 
     4 tetrahedral angles replaced.
 Add virtual bond connecting atoms O2         and Cu1        Dist= 7.34D+00.
 The following ModRedundant input section has been read:
 

 GradGradGradGradGradGradGradGradGradGradGradGradGradGradGradGradGradGrad
 Berny optimization.
 Initialization pass.
                           ----------------------------
                           !    Initial Parameters    !
                           ! (Angstroms and Degrees)  !
 --------------------------                            --------------------------
 ! Name  Definition              Value          Derivative Info.                !
 --------------------------------------------------------------------------------
 ! R1    R(1,2)                  3.8852         estimate D2E/DX2                !
 ! R2    R(1,3)                  1.8851         estimate D2E/DX2                !
 ! R3    R(2,6)                  0.95           estimate D2E/DX2                !
 ! R4    R(2,7)                  0.95           estimate D2E/DX2                !
 ! R5    R(3,4)                  0.95           estimate D2E/DX2                !
 ! R6    R(3,5)                  0.95           estimate D2E/DX2                !
 ! A1    A(1,2,6)              109.4712         estimate D2E/DX2                !
 ! A2    A(1,2,7)              109.4712         estimate D2E/DX2                !
 ! A3    A(6,2,7)              109.4712         estimate D2E/DX2                !
 ! A4    A(1,3,4)              109.4712         estimate D2E/DX2                !
 ! A5    A(1,3,5)              109.4712         estimate D2E/DX2                !
 ! A6    A(4,3,5)              109.4712         estimate D2E/DX2                !
 ! A7    L(2,1,3,5,-1)         173.7186         estimate D2E/DX2                !
 ! A8    L(2,1,3,5,-2)         161.5789         estimate D2E/DX2                !
 ! D1    D(6,2,3,4)            180.0            estimate D2E/DX2                !
 ! D2    D(6,2,3,5)            -58.1491         estimate D2E/DX2                !
 ! D3    D(7,2,3,4)            -61.0496         estimate D2E/DX2                !
 ! D4    D(7,2,3,5)             60.8012         estimate D2E/DX2                !
 --------------------------------------------------------------------------------
 Trust Radius=3.00D-01 FncErr=1.00D-07 GrdErr=1.00D-06
 Number of steps in this run=    100 maximum allowed number of steps=    100.
 GradGradGradGradGradGradGradGradGradGradGradGradGradGradGradGradGradGrad

                          Input orientation:                          
 ---------------------------------------------------------------------
 Center     Atomic      Atomic             Coordinates (Angstroms)
 Number     Number       Type             X           Y           Z
 ---------------------------------------------------------------------
      1         29           0        0.000000    0.000000    0.000000
      2          8           0        0.000000    0.000000    3.885203
      3          8           0        0.327337    0.000000   -1.856423
      4          1           0       -0.499735    0.000000   -2.323810
      5          1           0        0.823357    0.775672   -2.090513
      6          1           0        0.895669    0.000000    4.201870
      7          1           0       -0.447834    0.775672    4.201870
 ---------------------------------------------------------------------
                    Distance matrix (angstroms):
                    1          2          3          4          5
     1  Cu   0.000000
     2  O    3.885203   0.000000
     3  O    1.885061   5.750949   0.000000
     4  H    2.376936   6.229091   0.950000   0.000000
     5  H    2.376936   6.081839   0.950000   1.551344   0.000000
     6  H    4.296269   0.950000   6.084892   6.673203   6.340424
     7  H    4.296269   0.950000   6.156741   6.571823   6.419502
                    6          7
     6  H    0.000000
     7  H    1.551344   0.000000
 Stoichiometry    CuH4O2(2+,2)
 Framework group  C1[X(CuH4O2)]
 Deg. of freedom    15
 Full point group                 C1      NOp   1
 Largest Abelian subgroup         C1      NOp   1
 Largest concise Abelian subgroup C1      NOp   1
                         Standard orientation:                         
 ---------------------------------------------------------------------
 Center     Atomic      Atomic             Coordinates (Angstroms)
 Number     Number       Type             X           Y           Z
 ---------------------------------------------------------------------
      1         29           0       -0.410791   -0.083981   -0.016257
      2          8           0        3.472937    0.016323   -0.053675
      3          8           0       -2.275354    0.191127   -0.050531
      4          1           0       -2.720214   -0.637142    0.085744
      5          1           0       -2.518577    0.798322    0.638422
      6          1           0        3.765281    0.908394   -0.199427
      7          1           0        3.805767   -0.293711    0.780354
 ---------------------------------------------------------------------
 Rotational constants (GHZ):    122.2730801      1.5311790      1.5227602
 Standard basis: 6-311G(d) (5D, 7F)
 There are   102 symmetry adapted cartesian basis functions of A   symmetry.
 There are    94 symmetry adapted basis functions of A   symmetry.
    94 basis functions,   165 primitive gaussians,   102 cartesian basis functions
    24 alpha electrons       23 beta electrons
       nuclear repulsion energy       144.2638963451 Hartrees.
 NAtoms=    7 NActive=    7 NUniq=    7 SFac= 1.00D+00 NAtFMM=   60 NAOKFM=F Big=F
 Integral buffers will be    131072 words long.
 Raffenetti 2 integral format.
 Two-electron integral symmetry is turned on.
 One-electron integrals computed using PRISM.
 NBasis=    94 RedAO= T EigKep=  9.37D-03  NBF=    94
 NBsUse=    94 1.00D-06 EigRej= -1.00D+00 NBFU=    94
 ExpMin= 4.08D-02 ExpMax= 3.37D+05 ExpMxC= 1.14D+04 IAcc=2 IRadAn=         4 AccDes= 0.00D+00
 Harris functional with IExCor=  402 and IRadAn=       4 diagonalized for initial guess.
 HarFok:  IExCor=  402 AccDes= 0.00D+00 IRadAn=         4 IDoV= 1 UseB2=F ITyADJ=14
 ICtDFT=  3500011 ScaDFX=  1.000000  1.000000  1.000000  1.000000
 FoFCou: FMM=F IPFlag=           0 FMFlag=      100000 FMFlg1=           0
         NFxFlg=           0 DoJE=T BraDBF=F KetDBF=T FulRan=T
         wScrn=  0.000000 ICntrl=     500 IOpCl=  0 I1Cent=   200000004 NGrid=           0
         NMat0=    1 NMatS0=      1 NMatT0=    0 NMatD0=    1 NMtDS0=    0 NMtDT0=    0
 Petite list used in FoFCou.
 DSYEVD-2 returned Info=         142 IAlg= 4 N=    94 NDim=    94 NE2=     2855464 trying  DSYEV.
 Initial guess <Sx>= 0.0000 <Sy>= 0.0000 <Sz>= 0.5000 <S**2>= 0.7500 S= 0.5000
 Keep R1 and R2 ints in memory in canonical form, NReq=21960787.
 Requested convergence on RMS density matrix=1.00D-08 within  64 cycles.
 Requested convergence on MAX density matrix=1.00D-06.
 Requested convergence on             energy=1.00D-06.
 No special actions if energy rises.
 EnCoef did   100 forward-backward iterations
 EnCoef did   100 forward-backward iterations
 EnCoef did   100 forward-backward iterations
 EnCoef did     1 forward-backward iterations
 EnCoef did    43 forward-backward iterations
 EnCoef did    42 forward-backward iterations
 EnCoef did   100 forward-backward iterations
 Rare condition: small coef for last iteration:  0.000D+00
 Rare condition: small coef for last iteration:  0.000D+00
 EnCoef did   100 forward-backward iterations
 Rare condition: small coef for last iteration:  0.000D+00
 EnCoef did   100 forward-backward iterations
 Rare condition: small coef for last iteration:  0.000D+00
 EnCoef did   100 forward-backward iterations
 Rare condition: small coef for last iteration:  0.733D-07
 Rare condition: small coef for last iteration:  0.000D+00
 EnCoef did   100 forward-backward iterations
 EnCoef did   100 forward-backward iterations
 Rare condition: small coef for last iteration:  0.000D+00
 Rare condition: small coef for last iteration:  0.000D+00
 Rare condition: small coef for last iteration:  0.000D+00
 Rare condition: small coef for last iteration:  0.000D+00
 Rare condition: small coef for last iteration:  0.000D+00
 EnCoef did   100 forward-backward iterations
 Rare condition: small coef for last iteration:  0.000D+00
 Rare condition: small coef for last iteration:  0.000D+00
 SCF Done:  E(UB3LYP) =  -1792.52784112     A.U. after   61 cycles
            NFock= 61  Conv=0.33D-08     -V/T= 2.0005
 <Sx>= 0.0000 <Sy>= 0.0000 <Sz>= 0.5000 <S**2>= 0.7681 S= 0.5090
 <L.S>= 0.000000000000E+00
 Annihilation of the first spin contaminant:
 S**2 before annihilation     0.7681,   after     0.7500
 QCSCF skips out because SCF is already converged.

 **********************************************************************

            Population analysis using the SCF density.

 **********************************************************************

 Orbital symmetries:
 Alpha Orbitals:
       Occupied  (A) (A) (A) (A) (A) (A) (A) (A) (A) (A) (A) (A)
                 (A) (A) (A) (A) (A) (A) (A) (A) (A) (A) (A) (A)
       Virtual   (A) (A) (A) (A) (A) (A) (A) (A) (A) (A) (A) (A)
                 (A) (A) (A) (A) (A) (A) (A) (A) (A) (A) (A) (A)
                 (A) (A) (A) (A) (A) (A) (A) (A) (A) (A) (A) (A)
                 (A) (A) (A) (A) (A) (A) (A) (A) (A) (A) (A) (A)
                 (A) (A) (A) (A) (A) (A) (A) (A) (A) (A) (A) (A)
                 (A) (A) (A) (A) (A) (A) (A) (A) (A) (A)
 Beta  Orbitals:
       Occupied  (A) (A) (A) (A) (A) (A) (A) (A) (A) (A) (A) (A)
                 (A) (A) (A) (A) (A) (A) (A) (A) (A) (A) (A)
       Virtual   (A) (A) (A) (A) (A) (A) (A) (A) (A) (A) (A) (A)
                 (A) (A) (A) (A) (A) (A) (A) (A) (A) (A) (A) (A)
                 (A) (A) (A) (A) (A) (A) (A) (A) (A) (A) (A) (A)
                 (A) (A) (A) (A) (A) (A) (A) (A) (A) (A) (A) (A)
                 (A) (A) (A) (A) (A) (A) (A) (A) (A) (A) (A) (A)
                 (A) (A) (A) (A) (A) (A) (A) (A) (A) (A) (A)
 The electronic state is 2-A.
 Alpha  occ. eigenvalues -- -323.46815 -39.26338 -34.49676 -34.47846 -34.47770
 Alpha  occ. eigenvalues --  -19.58400 -19.57774  -4.79902  -3.32164  -3.28349
 Alpha  occ. eigenvalues --   -3.28211  -1.48233  -1.46166  -0.99789  -0.96789
 Alpha  occ. eigenvalues --   -0.90254  -0.81771  -0.80621  -0.78186  -0.77928
 Alpha  occ. eigenvalues --   -0.77228  -0.76783  -0.76761  -0.75400
 Alpha virt. eigenvalues --   -0.51426  -0.31614  -0.29849  -0.24442  -0.21263
 Alpha virt. eigenvalues --   -0.19154  -0.02944   0.02844   0.03396   0.06213
 Alpha virt. eigenvalues --    0.27310   0.30998   0.34615   0.38113   0.43348
 Alpha virt. eigenvalues --    0.50547   0.67524   0.75652   0.82759   0.83168
 Alpha virt. eigenvalues --    0.97622   0.97686   0.98252   1.03332   1.07825
 Alpha virt. eigenvalues --    1.30414   1.60679   1.62795   1.65428   1.67125
 Alpha virt. eigenvalues --    2.29792   2.30624   2.30869   2.32049   2.33452
 Alpha virt. eigenvalues --    2.46705   2.70087   2.74213   2.77616   3.03526
 Alpha virt. eigenvalues --    3.07086   3.46843   3.47099   3.47353   3.47551
 Alpha virt. eigenvalues --    3.47635   3.48034   3.48068   4.26976   4.33704
 Alpha virt. eigenvalues --    4.40992   4.45234   4.57511   4.57759   6.69108
 Alpha virt. eigenvalues --    6.69134   6.71541   6.72530   6.79064   8.79603
 Alpha virt. eigenvalues --    8.81066   9.07560  31.46916  42.25285  42.26328
 Alpha virt. eigenvalues --   42.43463  49.26103  49.28861 183.53664 978.79251
  Beta  occ. eigenvalues -- -323.46815 -39.25092 -34.47969 -34.47146 -34.47145
  Beta  occ. eigenvalues --  -19.58230 -19.56403  -4.77349  -3.27431  -3.26615
  Beta  occ. eigenvalues --   -3.26555  -1.47841  -1.42740  -0.99655  -0.95781
  Beta  occ. eigenvalues --   -0.88668  -0.80084  -0.79118  -0.77204  -0.75484
  Beta  occ. eigenvalues --   -0.75355  -0.75206  -0.66556
  Beta virt. eigenvalues --   -0.63657  -0.50536  -0.31500  -0.29392  -0.24377
  Beta virt. eigenvalues --   -0.20969  -0.18961  -0.02887   0.02965   0.03476
  Beta virt. eigenvalues --    0.06749   0.28050   0.31253   0.38574   0.38993
  Beta virt. eigenvalues --    0.43473   0.51236   0.67939   0.77533   0.83367
  Beta virt. eigenvalues --    0.83670   0.98212   0.98327   1.01182   1.03714
  Beta virt. eigenvalues --    1.08201   1.31600   1.60710   1.62734   1.65783
  Beta virt. eigenvalues --    1.67385   2.31076   2.31143   2.33971   2.34313
  Beta virt. eigenvalues --    2.37908   2.47285   2.71188   2.77814   2.78599
  Beta virt. eigenvalues --    3.03661   3.07759   3.47515   3.47537   3.48959
  Beta virt. eigenvalues --    3.49008   3.49047   3.49360   3.50514   4.33022
  Beta virt. eigenvalues --    4.34124   4.42171   4.45772   4.57662   4.58997
  Beta virt. eigenvalues --    6.70263   6.70273   6.72389   6.73347   6.83961
  Beta virt. eigenvalues --    8.80755   8.82098   9.10349  31.48574  42.26204
  Beta virt. eigenvalues --   42.27156  42.45707  49.27481  49.29033 183.54289
  Beta virt. eigenvalues --  978.79373
          Condensed to atoms (all electrons):
               1          2          3          4          5          6
     1  Cu  27.636439   0.006998   0.107399  -0.005009  -0.004802  -0.000261
     2  O    0.006998   8.006234   0.000000  -0.000001  -0.000001   0.245241
     3  O    0.107399   0.000000   8.243152   0.245213   0.245132   0.000000
     4  H   -0.005009  -0.000001   0.245213   0.244987  -0.018330   0.000000
     5  H   -0.004802  -0.000001   0.245132  -0.018330   0.247626   0.000000
     6  H   -0.000261   0.245241   0.000000   0.000000   0.000000   0.263128
     7  H   -0.000280   0.245094   0.000000   0.000000   0.000000  -0.019409
               7
     1  Cu  -0.000280
     2  O    0.245094
     3  O    0.000000
     4  H    0.000000
     5  H    0.000000
     6  H   -0.019409
     7  H    0.264465
          Atomic-Atomic Spin Densities.
               1          2          3          4          5          6
     1  Cu   0.439059  -0.002648  -0.011125   0.000729   0.000615  -0.000048
     2  O   -0.002648   0.558631   0.000000   0.000000   0.000000  -0.006306
     3  O   -0.011125   0.000000   0.074671  -0.000284  -0.000244   0.000000
     4  H    0.000729   0.000000  -0.000284  -0.001424   0.000030   0.000000
     5  H    0.000615   0.000000  -0.000244   0.000030  -0.001481   0.000000
     6  H   -0.000048  -0.006306   0.000000   0.000000   0.000000  -0.010202
     7  H   -0.000041  -0.006293   0.000000   0.000000   0.000000   0.001105
               7
     1  Cu  -0.000041
     2  O   -0.006293
     3  O    0.000000
     4  H    0.000000
     5  H    0.000000
     6  H    0.001105
     7  H   -0.010231
 Mulliken charges and spin densities:
               1          2
     1  Cu   1.259516   0.426540
     2  O   -0.503565   0.543384
     3  O   -0.840896   0.063017
     4  H    0.533140  -0.000949
     5  H    0.530375  -0.001081
     6  H    0.511301  -0.015451
     7  H    0.510129  -0.015460
 Sum of Mulliken charges =   2.00000   1.00000
 Mulliken charges and spin densities with hydrogens summed into heavy atoms:
               1          2
     1  Cu   1.259516   0.426540
     2  O    0.517866   0.512473
     3  O    0.222618   0.060987
 Electronic spatial extent (au):  <R**2>=            671.4573
 Charge=              2.0000 electrons
 Dipole moment (field-independent basis, Debye):
    X=              3.5715    Y=              0.6111    Z=              3.2529  Tot=              4.8693
 Quadrupole moment (field-independent basis, Debye-Ang):
   XX=             37.7081   YY=            -15.7573   ZZ=            -18.3621
   XY=              6.2959   XZ=              0.7467   YZ=              0.1880
 Traceless Quadrupole moment (field-independent basis, Debye-Ang):
   XX=             36.5119   YY=            -16.9535   ZZ=            -19.5584
   XY=              6.2959   XZ=              0.7467   YZ=              0.1880
 Octapole moment (field-independent basis, Debye-Ang**2):
  XXX=            110.9883  YYY=              0.2650  ZZZ=              2.8167  XYY=             -0.9522
  XXY=             16.0650  XXZ=             33.8374  XZZ=              1.2661  YZZ=             -0.2989
  YYZ=              1.2729  XYZ=             -7.7149
 Hexadecapole moment (field-independent basis, Debye-Ang**3):
 XXXX=            151.0061 YYYY=            -13.7754 ZZZZ=            -13.4925 XXXY=             85.7001
 XXXZ=             46.8285 YYYX=              9.2083 YYYZ=              0.4647 ZZZX=              3.1811
 ZZZY=              0.2960 XXYY=            -63.2737 XXZZ=            -84.7423 YYZZ=             -4.4422
 XXYZ=             -8.0552 YYXZ=             -3.7365 ZZXY=             -1.8468
 N-N= 1.442638963451D+02 E-N=-4.553492329564D+03  KE= 1.791576750161D+03
                          Isotropic Fermi Contact Couplings
        Atom                 a.u.       MegaHertz       Gauss      10(-4) cm-1
     1  Cu(63)            -0.21840    -259.04674     -92.43432     -86.40869
     2  O(17)              0.04450     -26.97561      -9.62557      -8.99809
     3  O(17)              0.02022     -12.25661      -4.37346      -4.08837
     4  H(1)              -0.00086      -3.85711      -1.37631      -1.28659
     5  H(1)              -0.00090      -4.00442      -1.42888      -1.33573
     6  H(1)              -0.00819     -36.60802     -13.06265     -12.21112
     7  H(1)              -0.00819     -36.61994     -13.06690     -12.21510
 --------------------------------------------------------
       Center         ----  Spin Dipole Couplings  ----
                      3XX-RR        3YY-RR        3ZZ-RR
 --------------------------------------------------------
     1   Atom        2.201022     -1.166178     -1.034843
     2   Atom        0.971816     -0.641355     -0.330461
     3   Atom        0.232195     -0.116502     -0.115693
     4   Atom        0.008541      0.004088     -0.012630
     5   Atom        0.004111     -0.003029     -0.001082
     6   Atom       -0.026014      0.082310     -0.056296
     7   Atom       -0.021320     -0.045852      0.067171
 --------------------------------------------------------
                        XY            XZ            YZ
 --------------------------------------------------------
     1   Atom       -0.436153     -0.210286     -0.047672
     2   Atom       -0.941162     -1.237758      0.555998
     3   Atom       -0.084092      0.087485     -0.019619
     4   Atom        0.008895     -0.000519     -0.003100
     5   Atom       -0.007947     -0.004724      0.010621
     6   Atom        0.035665     -0.025113     -0.018806
     7   Atom       -0.032364      0.034634     -0.042283
 --------------------------------------------------------


 ---------------------------------------------------------------------------------
              Anisotropic Spin Dipole Couplings in Principal Axis System
 ---------------------------------------------------------------------------------

       Atom             a.u.   MegaHertz   Gauss  10(-4) cm-1        Axes

              Baa    -1.2487  -176.799   -63.086   -58.974  0.1384  0.9291  0.3431
     1 Cu(63) Bbb    -1.0203  -144.453   -51.544   -48.184  0.0140 -0.3482  0.9373
              Bcc     2.2690   321.252   114.631   107.158  0.9903 -0.1249 -0.0612
 
              Baa    -1.0845    78.472    28.001    26.175  0.6026  0.5175  0.6075
     2 O(17)  Bbb    -1.0632    76.931    27.451    25.662 -0.0269  0.7740 -0.6327
              Bcc     2.1477  -155.403   -55.452   -51.837  0.7976 -0.3649 -0.4803
 
              Baa    -0.1366     9.882     3.526     3.296 -0.2888 -0.3324  0.8978
     3 O(17)  Bbb    -0.1356     9.810     3.500     3.272  0.1199  0.9178  0.3784
              Bcc     0.2721   -19.692    -7.027    -6.569  0.9499 -0.2169  0.2252
 
              Baa    -0.0133    -7.070    -2.523    -2.358 -0.0607  0.2058  0.9767
     4 H(1)   Bbb    -0.0024    -1.294    -0.462    -0.432 -0.6231  0.7566 -0.1981
              Bcc     0.0157     8.364     2.984     2.790  0.7798  0.6206 -0.0823
 
              Baa    -0.0132    -7.067    -2.522    -2.357  0.1908  0.7749 -0.6026
     5 H(1)   Bbb    -0.0023    -1.249    -0.446    -0.416  0.7626  0.2695  0.5881
              Bcc     0.0156     8.315     2.967     2.774  0.6181 -0.5717 -0.5395
 
              Baa    -0.0705   -37.610   -13.420   -12.545  0.4973 -0.0093  0.8675
     6 H(1)   Bbb    -0.0267   -14.259    -5.088    -4.756  0.8122 -0.3466 -0.4693
              Bcc     0.0972    51.869    18.508    17.301  0.3051  0.9380 -0.1648
 
              Baa    -0.0705   -37.617   -13.423   -12.548  0.4677  0.8711  0.1499
     7 H(1)   Bbb    -0.0267   -14.260    -5.088    -4.757  0.8127 -0.3571 -0.4605
              Bcc     0.0972    51.877    18.511    17.304  0.3477 -0.3372  0.8749
 

 ---------------------------------------------------------------------------------

 Calling FoFJK, ICntrl=      2127 FMM=F ISym2X=0 I1Cent= 0 IOpClX= 1 NMat=1 NMatS=1 NMatT=0.
 ***** Axes restored to original set *****
 -------------------------------------------------------------------
 Center     Atomic                   Forces (Hartrees/Bohr)
 Number     Number              X              Y              Z
 -------------------------------------------------------------------
      1       29           0.001111561   -0.008909352    0.004693514
      2        8          -0.010017191   -0.017032422   -0.027916794
      3        8          -0.003270928   -0.003665562    0.036517663
      4        1          -0.014159672   -0.003141680   -0.025682883
      5        1           0.015237731    0.014063207   -0.020802013
      6        1           0.025355626   -0.002133415    0.016513887
      7        1          -0.014257126    0.020819223    0.016676626
 -------------------------------------------------------------------
 Cartesian Forces:  Max     0.036517663 RMS     0.017179386

 GradGradGradGradGradGradGradGradGradGradGradGradGradGradGradGradGradGrad
 Berny optimization.
 FormGI is forming the generalized inverse of G from B-inverse, IUseBI=4.
 Internal  Forces:  Max     0.029420618 RMS     0.016071086
 Search for a local minimum.
 Step number   1 out of a maximum of  100
 All quantities printed in internal units (Hartrees-Bohrs-Radians)
 Mixed Optimization -- RFO/linear search
 Second derivative matrix not updated -- first step.
 The second derivative matrix:
                          R1        R2        R3        R4        R5
           R1           0.00858
           R2           0.00000   0.19001
           R3           0.00000   0.00000   0.57681
           R4           0.00000   0.00000   0.00000   0.57681
           R5           0.00000   0.00000   0.00000   0.00000   0.57681
           R6           0.00000   0.00000   0.00000   0.00000   0.00000
           A1           0.00000   0.00000   0.00000   0.00000   0.00000
           A2           0.00000   0.00000   0.00000   0.00000   0.00000
           A3           0.00000   0.00000   0.00000   0.00000   0.00000
           A4           0.00000   0.00000   0.00000   0.00000   0.00000
           A5           0.00000   0.00000   0.00000   0.00000   0.00000
           A6           0.00000   0.00000   0.00000   0.00000   0.00000
           A7           0.00000   0.00000   0.00000   0.00000   0.00000
           A8           0.00000   0.00000   0.00000   0.00000   0.00000
           D1           0.00000   0.00000   0.00000   0.00000   0.00000
           D2           0.00000   0.00000   0.00000   0.00000   0.00000
           D3           0.00000   0.00000   0.00000   0.00000   0.00000
           D4           0.00000   0.00000   0.00000   0.00000   0.00000
                          R6        A1        A2        A3        A4
           R6           0.57681
           A1           0.00000   0.16000
           A2           0.00000   0.00000   0.16000
           A3           0.00000   0.00000   0.00000   0.16000
           A4           0.00000   0.00000   0.00000   0.00000   0.16000
           A5           0.00000   0.00000   0.00000   0.00000   0.00000
           A6           0.00000   0.00000   0.00000   0.00000   0.00000
           A7           0.00000   0.00000   0.00000   0.00000   0.00000
           A8           0.00000   0.00000   0.00000   0.00000   0.00000
           D1           0.00000   0.00000   0.00000   0.00000   0.00000
           D2           0.00000   0.00000   0.00000   0.00000   0.00000
           D3           0.00000   0.00000   0.00000   0.00000   0.00000
           D4           0.00000   0.00000   0.00000   0.00000   0.00000
                          A5        A6        A7        A8        D1
           A5           0.16000
           A6           0.00000   0.16000
           A7           0.00000   0.00000   0.03612
           A8           0.00000   0.00000   0.00000   0.03612
           D1           0.00000   0.00000   0.00000   0.00000   0.00230
           D2           0.00000   0.00000   0.00000   0.00000   0.00000
           D3           0.00000   0.00000   0.00000   0.00000   0.00000
           D4           0.00000   0.00000   0.00000   0.00000   0.00000
                          D2        D3        D4
           D2           0.00230
           D3           0.00000   0.00230
           D4           0.00000   0.00000   0.00230
 ITU=  0
     Eigenvalues ---    0.00230   0.00858   0.03021   0.03509   0.05107
     Eigenvalues ---    0.05661   0.16000   0.16000   0.16000   0.16000
     Eigenvalues ---    0.19000   0.57677   0.57681   0.57681   0.57681
 RFO step:  Lambda=-1.85819446D-02 EMin= 2.30000000D-03
 Linear search not attempted -- first point.
 Maximum step size (   0.300) exceeded in Quadratic search.
    -- Step size scaled by   0.903
 Iteration  1 RMS(Cart)=  0.14484178 RMS(Int)=  0.01103661
 Iteration  2 RMS(Cart)=  0.00644612 RMS(Int)=  0.00738182
 Iteration  3 RMS(Cart)=  0.00004838 RMS(Int)=  0.00738168
 Iteration  4 RMS(Cart)=  0.00000033 RMS(Int)=  0.00738168
 Variable       Old X    -DE/DX   Delta X   Delta X   Delta X     New X
                                 (Linear)    (Quad)   (Total)
    R1        7.34197   0.00524   0.00000   0.17511   0.17508   7.51705
    R2        3.56225   0.00958   0.00000   0.04093   0.04115   3.60339
    R3        1.79524   0.02942   0.00000   0.04463   0.04463   1.83987
    R4        1.79524   0.02926   0.00000   0.04439   0.04439   1.83963
    R5        1.79524   0.02497   0.00000   0.03787   0.03787   1.83311
    R6        1.79524   0.02439   0.00000   0.03726   0.03698   1.83222
    A1        1.91063   0.01063   0.00000   0.06878   0.06562   1.97626
    A2        1.91063   0.01143   0.00000   0.07148   0.06853   1.97916
    A3        1.91063  -0.00428   0.00000   0.00844   0.00325   1.91388
    A4        1.91063   0.02181   0.00000   0.14097   0.12722   2.03786
    A5        1.91063   0.02142   0.00000   0.14275   0.12844   2.03907
    A6        1.91063  -0.01163   0.00000   0.00246  -0.01691   1.89372
    A7        3.03196  -0.00353   0.00000  -0.01540  -0.01826   3.01370
    A8        2.82008   0.00218   0.00000   0.00291   0.00650   2.82659
    D1        3.14159  -0.01054   0.00000  -0.14675  -0.15439   2.98721
    D2       -1.01489   0.00330   0.00000   0.04760   0.05138  -0.96352
    D3       -1.06552  -0.00355   0.00000  -0.05563  -0.05947  -1.12499
    D4        1.06118   0.01029   0.00000   0.13872   0.14629   1.20747
         Item               Value     Threshold  Converged?
 Maximum Force            0.029421     0.000450     NO 
 RMS     Force            0.016071     0.000300     NO 
 Maximum Displacement     0.285951     0.001800     NO 
 RMS     Displacement     0.142845     0.001200     NO 
 Predicted change in Energy=-1.088673D-02
 GradGradGradGradGradGradGradGradGradGradGradGradGradGradGradGradGradGrad

                          Input orientation:                          
 ---------------------------------------------------------------------
 Center     Atomic      Atomic             Coordinates (Angstroms)
 Number     Number       Type             X           Y           Z
 ---------------------------------------------------------------------
      1         29           0       -0.026178    0.028951   -0.017854
      2          8           0        0.015010    0.019428    3.959773
      3          8           0        0.294541    0.043917   -1.897464
      4          1           0       -0.481004   -0.043208   -2.473588
      5          1           0        0.853861    0.757843   -2.240294
      6          1           0        0.912711   -0.021693    4.334435
      7          1           0       -0.470148    0.766105    4.353188
 ---------------------------------------------------------------------
                    Distance matrix (angstroms):
                    1          2          3          4          5
     1  Cu   0.000000
     2  O    3.977852   0.000000
     3  O    1.906834   5.863954   0.000000
     4  H    2.498541   6.452759   0.970041   0.000000
     5  H    2.498997   6.299980   0.969568   1.574158   0.000000
     6  H    4.452696   0.973617   6.262827   6.949251   6.621042
     7  H    4.454943   0.973489   6.338529   6.874590   6.725108
                    6          7
     6  H    0.000000
     7  H    1.591627   0.000000
 Stoichiometry    CuH4O2(2+,2)
 Framework group  C1[X(CuH4O2)]
 Deg. of freedom    15
 Full point group                 C1      NOp   1
 Largest Abelian subgroup         C1      NOp   1
 Largest concise Abelian subgroup C1      NOp   1
                         Standard orientation:                         
 ---------------------------------------------------------------------
 Center     Atomic      Atomic             Coordinates (Angstroms)
 Number     Number       Type             X           Y           Z
 ---------------------------------------------------------------------
      1         29           0       -0.423519   -0.089475   -0.013771
      2          8           0        3.552473    0.026503   -0.050491
      3          8           0       -2.309093    0.193410   -0.038292
      4          1           0       -2.869884   -0.597285   -0.002306
      5          1           0       -2.661364    0.849009    0.583122
      6          1           0        3.909124    0.914301   -0.230891
      7          1           0        3.957133   -0.330555    0.759718
 ---------------------------------------------------------------------
 Rotational constants (GHZ):    121.2552158      1.4610586      1.4522800
 Standard basis: 6-311G(d) (5D, 7F)
 There are   102 symmetry adapted cartesian basis functions of A   symmetry.
 There are    94 symmetry adapted basis functions of A   symmetry.
    94 basis functions,   165 primitive gaussians,   102 cartesian basis functions
    24 alpha electrons       23 beta electrons
       nuclear repulsion energy       141.2761634132 Hartrees.
 NAtoms=    7 NActive=    7 NUniq=    7 SFac= 1.00D+00 NAtFMM=   60 NAOKFM=F Big=F
 Integral buffers will be    131072 words long.
 Raffenetti 2 integral format.
 Two-electron integral symmetry is turned on.
 One-electron integrals computed using PRISM.
 NBasis=    94 RedAO= T EigKep=  9.37D-03  NBF=    94
 NBsUse=    94 1.00D-06 EigRej= -1.00D+00 NBFU=    94
 Initial guess from the checkpoint file:  "pescuh2o2.chk"
 B after Tr=     0.000000    0.000000    0.000000
         Rot=    1.000000    0.000089    0.000123    0.000272 Ang=   0.04 deg.
 Initial guess <Sx>= 0.0000 <Sy>= 0.0000 <Sz>= 0.5000 <S**2>= 0.7683 S= 0.5091
 ExpMin= 4.08D-02 ExpMax= 3.37D+05 ExpMxC= 1.14D+04 IAcc=2 IRadAn=         4 AccDes= 0.00D+00
 Harris functional with IExCor=  402 and IRadAn=       4 diagonalized for initial guess.
 HarFok:  IExCor=  402 AccDes= 0.00D+00 IRadAn=         4 IDoV= 1 UseB2=F ITyADJ=14
 ICtDFT=  3500011 ScaDFX=  1.000000  1.000000  1.000000  1.000000
 FoFCou: FMM=F IPFlag=           0 FMFlag=      100000 FMFlg1=           0
         NFxFlg=           0 DoJE=T BraDBF=F KetDBF=T FulRan=T
         wScrn=  0.000000 ICntrl=     500 IOpCl=  0 I1Cent=   200000004 NGrid=           0
         NMat0=    1 NMatS0=      1 NMatT0=    0 NMatD0=    1 NMtDS0=    0 NMtDT0=    0
 Petite list used in FoFCou.
 Keep R1 and R2 ints in memory in canonical form, NReq=21960368.
 Requested convergence on RMS density matrix=1.00D-08 within  64 cycles.
 Requested convergence on MAX density matrix=1.00D-06.
 Requested convergence on             energy=1.00D-06.
 No special actions if energy rises.
 SCF Done:  E(UB3LYP) =  -1792.53958130     A.U. after   21 cycles
            NFock= 21  Conv=0.81D-08     -V/T= 2.0006
 <Sx>= 0.0000 <Sy>= 0.0000 <Sz>= 0.5000 <S**2>= 0.7660 S= 0.5080
 <L.S>= 0.000000000000E+00
 Annihilation of the first spin contaminant:
 S**2 before annihilation     0.7660,   after     0.7500
 QCSCF skips out because SCF is already converged.
 Calling FoFJK, ICntrl=      2127 FMM=F ISym2X=0 I1Cent= 0 IOpClX= 1 NMat=1 NMatS=1 NMatT=0.
 ***** Axes restored to original set *****
 -------------------------------------------------------------------
 Center     Atomic                   Forces (Hartrees/Bohr)
 Number     Number              X              Y              Z
 -------------------------------------------------------------------
      1       29           0.001141398   -0.004808320   -0.005822778
      2        8           0.000274939    0.000776073   -0.011826438
      3        8          -0.007654608    0.008891386    0.015359134
      4        1           0.002010911   -0.003265903   -0.007185060
      5        1           0.003608049   -0.002144843   -0.007285407
      6        1           0.002507991   -0.001031903    0.008275994
      7        1          -0.001888680    0.001583509    0.008484554
 -------------------------------------------------------------------
 Cartesian Forces:  Max     0.015359134 RMS     0.006411903

 GradGradGradGradGradGradGradGradGradGradGradGradGradGradGradGradGradGrad
 Berny optimization.
 Using GEDIIS/GDIIS optimizer.
 FormGI is forming the generalized inverse of G from B-inverse, IUseBI=4.
 Internal  Forces:  Max     0.009255447 RMS     0.005714772
 Search for a local minimum.
 Step number   2 out of a maximum of  100
 All quantities printed in internal units (Hartrees-Bohrs-Radians)
 Mixed Optimization -- RFO/linear search
 Update second derivatives using D2CorX and points    1    2
 DE= -1.17D-02 DEPred=-1.09D-02 R= 1.08D+00
 TightC=F SS=  1.41D+00  RLast= 3.65D-01 DXNew= 5.0454D-01 1.0936D+00
 Trust test= 1.08D+00 RLast= 3.65D-01 DXMaxT set to 5.05D-01
 The second derivative matrix:
                          R1        R2        R3        R4        R5
           R1           0.00839
           R2          -0.00065   0.19678
           R3          -0.00255   0.00957   0.57974
           R4          -0.00254   0.00946   0.00278   0.57944
           R5          -0.00210   0.01013   0.00700   0.00683   0.58691
           R6          -0.00205   0.00988   0.00681   0.00665   0.00984
           A1          -0.00132  -0.00498  -0.01877  -0.01868  -0.01555
           A2          -0.00137  -0.00507  -0.01931  -0.01922  -0.01597
           A3          -0.00001   0.00151   0.00301   0.00299   0.00286
           A4          -0.00220   0.00171  -0.01086  -0.01088  -0.00662
           A5          -0.00225   0.00095  -0.01269  -0.01270  -0.00827
           A6           0.00016  -0.00448  -0.00811  -0.00803  -0.00793
           A7           0.00006  -0.00056  -0.00078  -0.00077  -0.00083
           A8          -0.00003  -0.00025  -0.00073  -0.00072  -0.00063
           D1          -0.00007  -0.00351  -0.00762  -0.00756  -0.00709
           D2           0.00006   0.00220   0.00485   0.00482   0.00449
           D3          -0.00006  -0.00225  -0.00495  -0.00491  -0.00459
           D4           0.00007   0.00346   0.00753   0.00747   0.00700
                          R6        A1        A2        A3        A4
           R6           0.58639
           A1          -0.01519   0.15069
           A2          -0.01560  -0.00969   0.14990
           A3           0.00279  -0.00013  -0.00012   0.16026
           A4          -0.00647  -0.01593  -0.01647   0.00148   0.14382
           A5          -0.00809  -0.01623  -0.01678   0.00138  -0.01733
           A6          -0.00773   0.00133   0.00132  -0.00085  -0.00335
           A7          -0.00081   0.00042   0.00043  -0.00013  -0.00013
           A8          -0.00062  -0.00023  -0.00024  -0.00002  -0.00053
           D1          -0.00692  -0.00037  -0.00042  -0.00056  -0.00422
           D2           0.00439   0.00031   0.00035   0.00034   0.00274
           D3          -0.00448  -0.00031  -0.00035  -0.00035  -0.00278
           D4           0.00683   0.00037   0.00043   0.00055   0.00417
                          A5        A6        A7        A8        D1
           A5           0.14155
           A6          -0.00298   0.16266
           A7          -0.00007   0.00037   0.03616
           A8          -0.00053   0.00010   0.00002   0.03611
           D1          -0.00402   0.00187   0.00029   0.00003   0.00345
           D2           0.00262  -0.00116  -0.00018  -0.00002  -0.00070
           D3          -0.00266   0.00119   0.00019   0.00002   0.00072
           D4           0.00398  -0.00184  -0.00029  -0.00003  -0.00113
                          D2        D3        D4
           D2           0.00273
           D3          -0.00044   0.00275
           D4           0.00069  -0.00071   0.00341
 ITU=  1  0
 Use linear search instead of GDIIS.
     Eigenvalues ---    0.00230   0.00823   0.02387   0.03187   0.03977
     Eigenvalues ---    0.04377   0.12753   0.16000   0.16000   0.16618
     Eigenvalues ---    0.19743   0.57448   0.57679   0.57681   0.60993
 RFO step:  Lambda=-8.07125342D-03 EMin= 2.30005424D-03
 Quartic linear search produced a step of  0.99188.
 Iteration  1 RMS(Cart)=  0.15172415 RMS(Int)=  0.10570875
 Iteration  2 RMS(Cart)=  0.06501509 RMS(Int)=  0.05643691
 Iteration  3 RMS(Cart)=  0.06098011 RMS(Int)=  0.02154473
 Iteration  4 RMS(Cart)=  0.00695404 RMS(Int)=  0.02088282
 Iteration  5 RMS(Cart)=  0.00000491 RMS(Int)=  0.02088282
 Iteration  6 RMS(Cart)=  0.00000004 RMS(Int)=  0.02088282
 Variable       Old X    -DE/DX   Delta X   Delta X   Delta X     New X
                                 (Linear)    (Quad)   (Total)
    R1        7.51705   0.00491   0.17366   0.43916   0.61273   8.12979
    R2        3.60339  -0.00104   0.04081  -0.04888  -0.00763   3.59576
    R3        1.83987   0.00555   0.04427  -0.02316   0.02111   1.86098
    R4        1.83963   0.00557   0.04403  -0.02286   0.02116   1.86079
    R5        1.83311   0.00295   0.03757  -0.02543   0.01213   1.84525
    R6        1.83222   0.00291   0.03668  -0.02454   0.01165   1.84387
    A1        1.97626   0.00865   0.06509   0.07574   0.11989   2.09614
    A2        1.97916   0.00926   0.06797   0.07714   0.12486   2.10402
    A3        1.91388  -0.00591   0.00322  -0.00462  -0.02760   1.88628
    A4        2.03786   0.00806   0.12619   0.03153   0.11476   2.15261
    A5        2.03907   0.00821   0.12740   0.03704   0.12183   2.16090
    A6        1.89372  -0.00609  -0.01677   0.04380  -0.01960   1.87412
    A7        3.01370  -0.00264  -0.01812  -0.00323  -0.02614   2.98756
    A8        2.82659   0.00225   0.00645   0.01621   0.03000   2.85659
    D1        2.98721  -0.00726  -0.15313  -0.14506  -0.31250   2.67470
    D2       -0.96352   0.00131   0.05096   0.00843   0.05991  -0.90361
    D3       -1.12499  -0.00151  -0.05899  -0.02627  -0.08612  -1.21111
    D4        1.20747   0.00707   0.14510   0.12722   0.28629   1.49376
         Item               Value     Threshold  Converged?
 Maximum Force            0.009255     0.000450     NO 
 RMS     Force            0.005715     0.000300     NO 
 Maximum Displacement     0.569378     0.001800     NO 
 RMS     Displacement     0.273875     0.001200     NO 
 Predicted change in Energy=-6.863620D-03
 GradGradGradGradGradGradGradGradGradGradGradGradGradGradGradGradGradGrad

                          Input orientation:                          
 ---------------------------------------------------------------------
 Center     Atomic      Atomic             Coordinates (Angstroms)
 Number     Number       Type             X           Y           Z
 ---------------------------------------------------------------------
      1         29           0       -0.061554    0.091801   -0.163050
      2          8           0        0.052248    0.078310    4.137520
      3          8           0        0.244137    0.116579   -2.040965
      4          1           0       -0.439712   -0.113156   -2.699031
      5          1           0        0.882784    0.709905   -2.479313
      6          1           0        0.907118   -0.052586    4.608547
      7          1           0       -0.486228    0.720491    4.654490
 ---------------------------------------------------------------------
                    Distance matrix (angstroms):
                    1          2          3          4          5
     1  Cu   0.000000
     2  O    4.302097   0.000000
     3  O    1.902794   6.181583   0.000000
     4  H    2.572199   6.856903   0.976462   0.000000
     5  H    2.576606   6.698596   0.975733   1.573118   0.000000
     6  H    4.871069   0.984786   6.684622   7.430902   7.128797
     7  H    4.876915   0.984689   6.762194   7.400771   7.263984
                    6          7
     6  H    0.000000
     7  H    1.594106   0.000000
 Stoichiometry    CuH4O2(2+,2)
 Framework group  C1[X(CuH4O2)]
 Deg. of freedom    15
 Full point group                 C1      NOp   1
 Largest Abelian subgroup         C1      NOp   1
 Largest concise Abelian subgroup C1      NOp   1
                         Standard orientation:                         
 ---------------------------------------------------------------------
 Center     Atomic      Atomic             Coordinates (Angstroms)
 Number     Number       Type             X           Y           Z
 ---------------------------------------------------------------------
      1         29           0       -0.491570   -0.096264   -0.008568
      2          8           0        3.808098    0.044607   -0.041017
      3          8           0       -2.371555    0.197328   -0.017802
      4          1           0       -3.024954   -0.513440   -0.163944
      5          1           0       -2.814059    0.898832    0.496140
      6          1           0        4.273102    0.881122   -0.273005
      7          1           0        4.329104   -0.410327    0.659838
 ---------------------------------------------------------------------
 Rotational constants (GHZ):    124.2161885      1.2886991      1.2807546
 Standard basis: 6-311G(d) (5D, 7F)
 There are   102 symmetry adapted cartesian basis functions of A   symmetry.
 There are    94 symmetry adapted basis functions of A   symmetry.
    94 basis functions,   165 primitive gaussians,   102 cartesian basis functions
    24 alpha electrons       23 beta electrons
       nuclear repulsion energy       137.4945984412 Hartrees.
 NAtoms=    7 NActive=    7 NUniq=    7 SFac= 1.00D+00 NAtFMM=   60 NAOKFM=F Big=F
 Integral buffers will be    131072 words long.
 Raffenetti 2 integral format.
 Two-electron integral symmetry is turned on.
 One-electron integrals computed using PRISM.
 NBasis=    94 RedAO= T EigKep=  9.37D-03  NBF=    94
 NBsUse=    94 1.00D-06 EigRej= -1.00D+00 NBFU=    94
 Initial guess from the checkpoint file:  "pescuh2o2.chk"
 B after Tr=     0.000000    0.000000    0.000000
         Rot=    0.999952   -0.009735   -0.000217    0.001424 Ang=  -1.13 deg.
 Initial guess <Sx>= 0.0000 <Sy>= 0.0000 <Sz>= 0.5000 <S**2>= 0.7660 S= 0.5079
 ExpMin= 4.08D-02 ExpMax= 3.37D+05 ExpMxC= 1.14D+04 IAcc=2 IRadAn=         4 AccDes= 0.00D+00
 Harris functional with IExCor=  402 and IRadAn=       4 diagonalized for initial guess.
 HarFok:  IExCor=  402 AccDes= 0.00D+00 IRadAn=         4 IDoV= 1 UseB2=F ITyADJ=14
 ICtDFT=  3500011 ScaDFX=  1.000000  1.000000  1.000000  1.000000
 FoFCou: FMM=F IPFlag=           0 FMFlag=      100000 FMFlg1=           0
         NFxFlg=           0 DoJE=T BraDBF=F KetDBF=T FulRan=T
         wScrn=  0.000000 ICntrl=     500 IOpCl=  0 I1Cent=   200000004 NGrid=           0
         NMat0=    1 NMatS0=      1 NMatT0=    0 NMatD0=    1 NMtDS0=    0 NMtDT0=    0
 Petite list used in FoFCou.
 Keep R1 and R2 ints in memory in canonical form, NReq=21959850.
 Requested convergence on RMS density matrix=1.00D-08 within  64 cycles.
 Requested convergence on MAX density matrix=1.00D-06.
 Requested convergence on             energy=1.00D-06.
 No special actions if energy rises.
 SCF Done:  E(UB3LYP) =  -1792.54846712     A.U. after   24 cycles
            NFock= 24  Conv=0.28D-08     -V/T= 2.0007
 <Sx>= 0.0000 <Sy>= 0.0000 <Sz>= 0.5000 <S**2>= 0.7634 S= 0.5067
 <L.S>= 0.000000000000E+00
 Annihilation of the first spin contaminant:
 S**2 before annihilation     0.7634,   after     0.7500
 QCSCF skips out because SCF is already converged.
 Calling FoFJK, ICntrl=      2127 FMM=F ISym2X=0 I1Cent= 0 IOpClX= 1 NMat=1 NMatS=1 NMatT=0.
 ***** Axes restored to original set *****
 -------------------------------------------------------------------
 Center     Atomic                   Forces (Hartrees/Bohr)
 Number     Number              X              Y              Z
 -------------------------------------------------------------------
      1       29           0.000656983   -0.001581034   -0.008018117
      2        8           0.003641421    0.006315786    0.002594617
      3        8          -0.004094246    0.006574027   -0.002742873
      4        1           0.003739820   -0.001517008    0.003568509
      5        1          -0.000853644   -0.004169387    0.002577052
      6        1          -0.004655673   -0.001111572    0.001077637
      7        1           0.001565339   -0.004510812    0.000943174
 -------------------------------------------------------------------
 Cartesian Forces:  Max     0.008018117 RMS     0.003755261

 GradGradGradGradGradGradGradGradGradGradGradGradGradGradGradGradGradGrad
 Berny optimization.
 Using GEDIIS/GDIIS optimizer.
 FormGI is forming the generalized inverse of G from B-inverse, IUseBI=4.
 Internal  Forces:  Max     0.004667656 RMS     0.003021583
 Search for a local minimum.
 Step number   3 out of a maximum of  100
 All quantities printed in internal units (Hartrees-Bohrs-Radians)
 Mixed Optimization -- RFO/linear search
 Update second derivatives using D2CorX and points    2    3
 DE= -8.89D-03 DEPred=-6.86D-03 R= 1.29D+00
 TightC=F SS=  1.41D+00  RLast= 7.92D-01 DXNew= 8.4853D-01 2.3774D+00
 Trust test= 1.29D+00 RLast= 7.92D-01 DXMaxT set to 8.49D-01
 The second derivative matrix:
                          R1        R2        R3        R4        R5
           R1           0.00682
           R2          -0.00065   0.19765
           R3          -0.00544   0.01262   0.58500
           R4          -0.00543   0.01249   0.00797   0.58456
           R5          -0.00383   0.01278   0.01302   0.01280   0.59302
           R6          -0.00371   0.01240   0.01252   0.01231   0.01564
           A1          -0.00538  -0.00333  -0.02051  -0.02047  -0.01505
           A2          -0.00563  -0.00332  -0.02107  -0.02103  -0.01539
           A3           0.00120   0.00054   0.00187   0.00187   0.00127
           A4          -0.00615   0.00435  -0.00894  -0.00903  -0.00298
           A5          -0.00638   0.00362  -0.01105  -0.01112  -0.00478
           A6           0.00182  -0.00699  -0.01380  -0.01366  -0.01371
           A7           0.00040  -0.00104  -0.00181  -0.00179  -0.00190
           A8          -0.00030   0.00004  -0.00023  -0.00024  -0.00007
           D1           0.00095  -0.00466  -0.00975  -0.00967  -0.00945
           D2          -0.00049   0.00289   0.00626   0.00621   0.00599
           D3           0.00052  -0.00296  -0.00636  -0.00630  -0.00610
           D4          -0.00092   0.00460   0.00966   0.00958   0.00935
                          R6        A1        A2        A3        A4
           R6           0.59191
           A1          -0.01473   0.14329
           A2          -0.01506  -0.01742   0.14185
           A3           0.00128   0.00117   0.00123   0.16040
           A4          -0.00303  -0.02117  -0.02190   0.00160   0.14186
           A5          -0.00479  -0.02192  -0.02269   0.00162  -0.01970
           A6          -0.01323   0.00090   0.00082   0.00065  -0.00676
           A7          -0.00183   0.00042   0.00041   0.00014  -0.00070
           A8          -0.00008  -0.00039  -0.00041  -0.00013  -0.00035
           D1          -0.00916   0.00010   0.00005  -0.00007  -0.00513
           D2           0.00581   0.00021   0.00026   0.00000   0.00346
           D3          -0.00591  -0.00016  -0.00020  -0.00001  -0.00348
           D4           0.00906  -0.00005   0.00001   0.00006   0.00511
                          A5        A6        A7        A8        D1
           A5           0.13874
           A6          -0.00625   0.16814
           A7          -0.00061   0.00138   0.03635
           A8          -0.00038  -0.00043  -0.00008   0.03616
           D1          -0.00484   0.00411   0.00070  -0.00017   0.00430
           D2           0.00330  -0.00258  -0.00044   0.00011  -0.00126
           D3          -0.00330   0.00262   0.00045  -0.00011   0.00128
           D4           0.00483  -0.00407  -0.00069   0.00017  -0.00198
                          D2        D3        D4
           D2           0.00309
           D3          -0.00080   0.00311
           D4           0.00125  -0.00127   0.00427
 ITU=  1  1  0
 Use linear search instead of GDIIS.
 Linear search step of   0.953 exceeds DXMaxT=   0.849 but not scaled.
 Quartic linear search produced a step of  1.43840.
 Iteration  1 RMS(Cart)=  0.13929939 RMS(Int)=  0.18187718
 Iteration  2 RMS(Cart)=  0.08607334 RMS(Int)=  0.12190496
 Iteration  3 RMS(Cart)=  0.05867069 RMS(Int)=  0.07815081
 Iteration  4 RMS(Cart)=  0.06165302 RMS(Int)=  0.04264372
 Iteration  5 RMS(Cart)=  0.02870074 RMS(Int)=  0.03656650
 Iteration  6 RMS(Cart)=  0.00002651 RMS(Int)=  0.03656650
 Iteration  7 RMS(Cart)=  0.00000021 RMS(Int)=  0.03656650
 Variable       Old X    -DE/DX   Delta X   Delta X   Delta X     New X
                                 (Linear)    (Quad)   (Total)
    R1        8.12979   0.00460   0.88136   0.00000   0.88131   9.01109
    R2        3.59576  -0.00344  -0.01098   0.00000  -0.01081   3.58495
    R3        1.86098  -0.00338   0.03036   0.00000   0.03036   1.89134
    R4        1.86079  -0.00331   0.03044   0.00000   0.03044   1.89123
    R5        1.84525  -0.00467   0.01745   0.00000   0.01745   1.86270
    R6        1.84387  -0.00434   0.01676   0.00000   0.01667   1.86054
    A1        2.09614   0.00333   0.17245   0.00000   0.12081   2.21696
    A2        2.10402   0.00364   0.17959   0.00000   0.12845   2.23247
    A3        1.88628  -0.00302  -0.03970   0.00000  -0.09395   1.79234
    A4        2.15261   0.00004   0.16507   0.00000   0.09260   2.24521
    A5        2.16090   0.00009   0.17524   0.00000   0.10318   2.26408
    A6        1.87412   0.00116  -0.02820   0.00000  -0.10050   1.77362
    A7        2.98756  -0.00125  -0.03759   0.00000  -0.04133   2.94623
    A8        2.85659   0.00142   0.04316   0.00000   0.04516   2.90175
    D1        2.67470  -0.00389  -0.44951   0.00000  -0.45628   2.21842
    D2       -0.90361  -0.00070   0.08617   0.00000   0.08011  -0.82350
    D3       -1.21111   0.00055  -0.12387   0.00000  -0.11829  -1.32940
    D4        1.49376   0.00374   0.41180   0.00000   0.41810   1.91186
         Item               Value     Threshold  Converged?
 Maximum Force            0.004668     0.000450     NO 
 RMS     Force            0.003022     0.000300     NO 
 Maximum Displacement     0.715013     0.001800     NO 
 RMS     Displacement     0.350729     0.001200     NO 
 Predicted change in Energy=-1.535456D-03
 GradGradGradGradGradGradGradGradGradGradGradGradGradGradGradGradGradGrad

                          Input orientation:                          
 ---------------------------------------------------------------------
 Center     Atomic      Atomic             Coordinates (Angstroms)
 Number     Number       Type             X           Y           Z
 ---------------------------------------------------------------------
      1         29           0       -0.130899    0.181613   -0.376582
      2          8           0        0.101437    0.160369    4.386172
      3          8           0        0.181338    0.206168   -2.247623
      4          1           0       -0.360585   -0.193668   -2.967379
      5          1           0        0.905392    0.634494   -2.759120
      6          1           0        0.892486   -0.080859    4.949869
      7          1           0       -0.490374    0.643228    5.032859
 ---------------------------------------------------------------------
                    Distance matrix (angstroms):
                    1          2          3          4          5
     1  Cu   0.000000
     2  O    4.768465   0.000000
     3  O    1.897074   6.634435   0.000000
     4  H    2.627892   7.376552   0.985697   0.000000
     5  H    2.637326   7.205993   0.984554   1.527063   0.000000
     6  H    5.430220   1.000852   7.238233   8.016591   7.742120
     7  H    5.440989   1.000798   7.324455   8.044939   7.916008
                    6          7
     6  H    0.000000
     7  H    1.563167   0.000000
 Stoichiometry    CuH4O2(2+,2)
 Framework group  C1[X(CuH4O2)]
 Deg. of freedom    15
 Full point group                 C1      NOp   1
 Largest Abelian subgroup         C1      NOp   1
 Largest concise Abelian subgroup C1      NOp   1
                         Standard orientation:                         
 ---------------------------------------------------------------------
 Center     Atomic      Atomic             Coordinates (Angstroms)
 Number     Number       Type             X           Y           Z
 ---------------------------------------------------------------------
      1         29           0       -0.590773   -0.113731   -0.001251
      2          8           0        4.173931    0.074054   -0.025435
      3          8           0       -2.458913    0.216295    0.004019
      4          1           0       -3.183040   -0.338626   -0.369211
      5          1           0       -2.964359    0.965706    0.394215
      6          1           0        4.745173    0.846737   -0.305341
      7          1           0        4.814509   -0.498396    0.487944
 ---------------------------------------------------------------------
 Rotational constants (GHZ):    117.7837558      1.0922657      1.0851873
 Standard basis: 6-311G(d) (5D, 7F)
 There are   102 symmetry adapted cartesian basis functions of A   symmetry.
 There are    94 symmetry adapted basis functions of A   symmetry.
    94 basis functions,   165 primitive gaussians,   102 cartesian basis functions
    24 alpha electrons       23 beta electrons
       nuclear repulsion energy       133.2017064813 Hartrees.
 NAtoms=    7 NActive=    7 NUniq=    7 SFac= 1.00D+00 NAtFMM=   60 NAOKFM=F Big=F
 Integral buffers will be    131072 words long.
 Raffenetti 2 integral format.
 Two-electron integral symmetry is turned on.
 One-electron integrals computed using PRISM.
 NBasis=    94 RedAO= T EigKep=  9.37D-03  NBF=    94
 NBsUse=    94 1.00D-06 EigRej= -1.00D+00 NBFU=    94
 Initial guess from the checkpoint file:  "pescuh2o2.chk"
 B after Tr=     0.000000    0.000000    0.000000
         Rot=    0.999817   -0.019037   -0.000160    0.001825 Ang=  -2.19 deg.
 Initial guess <Sx>= 0.0000 <Sy>= 0.0000 <Sz>= 0.5000 <S**2>= 0.7633 S= 0.5066
 ExpMin= 4.08D-02 ExpMax= 3.37D+05 ExpMxC= 1.14D+04 IAcc=2 IRadAn=         4 AccDes= 0.00D+00
 Harris functional with IExCor=  402 and IRadAn=       4 diagonalized for initial guess.
 HarFok:  IExCor=  402 AccDes= 0.00D+00 IRadAn=         4 IDoV= 1 UseB2=F ITyADJ=14
 ICtDFT=  3500011 ScaDFX=  1.000000  1.000000  1.000000  1.000000
 FoFCou: FMM=F IPFlag=           0 FMFlag=      100000 FMFlg1=           0
         NFxFlg=           0 DoJE=T BraDBF=F KetDBF=T FulRan=T
         wScrn=  0.000000 ICntrl=     500 IOpCl=  0 I1Cent=   200000004 NGrid=           0
         NMat0=    1 NMatS0=      1 NMatT0=    0 NMatD0=    1 NMtDS0=    0 NMtDT0=    0
 Petite list used in FoFCou.
 Keep R1 and R2 ints in memory in canonical form, NReq=21958932.
 Requested convergence on RMS density matrix=1.00D-08 within  64 cycles.
 Requested convergence on MAX density matrix=1.00D-06.
 Requested convergence on             energy=1.00D-06.
 No special actions if energy rises.
 SCF Done:  E(UB3LYP) =  -1792.55185785     A.U. after   28 cycles
            NFock= 28  Conv=0.84D-08     -V/T= 2.0007
 <Sx>= 0.0000 <Sy>= 0.0000 <Sz>= 0.5000 <S**2>= 0.7625 S= 0.5062
 <L.S>= 0.000000000000E+00
 Annihilation of the first spin contaminant:
 S**2 before annihilation     0.7625,   after     0.7500
 QCSCF skips out because SCF is already converged.
 Calling FoFJK, ICntrl=      2127 FMM=F ISym2X=0 I1Cent= 0 IOpClX= 1 NMat=1 NMatS=1 NMatT=0.
 ***** Axes restored to original set *****
 -------------------------------------------------------------------
 Center     Atomic                   Forces (Hartrees/Bohr)
 Number     Number              X              Y              Z
 -------------------------------------------------------------------
      1       29           0.000586847   -0.000043985   -0.008008407
      2        8           0.005713694    0.007272573    0.030417549
      3        8           0.003518493    0.000129395   -0.030704267
      4        1          -0.001582472    0.000262084    0.017380310
      5        1          -0.002855208   -0.000554913    0.016939387
      6        1          -0.008267337   -0.000618430   -0.012673794
      7        1           0.002885982   -0.006446725   -0.013350778
 -------------------------------------------------------------------
 Cartesian Forces:  Max     0.030704267 RMS     0.012126188

 GradGradGradGradGradGradGradGradGradGradGradGradGradGradGradGradGradGrad
 Berny optimization.
 Using GEDIIS/GDIIS optimizer.
 FormGI is forming the generalized inverse of G from B-inverse, IUseBI=4.
 Internal  Forces:  Max     0.016017896 RMS     0.007991701
 Search for a local minimum.
 Step number   4 out of a maximum of  100
 All quantities printed in internal units (Hartrees-Bohrs-Radians)
 Mixed Optimization -- RFO/linear search
 Update second derivatives using D2CorX and points    3    4
 The second derivative matrix:
                          R1        R2        R3        R4        R5
           R1           0.00660
           R2          -0.00113   0.19658
           R3          -0.00746   0.00791   0.57304
           R4          -0.00745   0.00780  -0.00393   0.57273
           R5          -0.00549   0.00895   0.00229   0.00213   0.58359
           R6          -0.00529   0.00874   0.00217   0.00201   0.00656
           A1          -0.00575  -0.00432  -0.01817  -0.01812  -0.01389
           A2          -0.00608  -0.00451  -0.01925  -0.01920  -0.01469
           A3           0.00267   0.00405   0.00749   0.00744   0.00694
           A4          -0.00666   0.00302  -0.00760  -0.00768  -0.00269
           A5          -0.00695   0.00217  -0.00967  -0.00973  -0.00452
           A6           0.00431  -0.00115  -0.00107  -0.00102  -0.00189
           A7           0.00066  -0.00044   0.00008   0.00009  -0.00028
           A8          -0.00046  -0.00034  -0.00100  -0.00100  -0.00079
           D1           0.00147  -0.00345  -0.00660  -0.00653  -0.00664
           D2          -0.00080   0.00218   0.00360   0.00356   0.00377
           D3           0.00084  -0.00222  -0.00364  -0.00360  -0.00382
           D4          -0.00143   0.00341   0.00657   0.00650   0.00659
                          R6        A1        A2        A3        A4
           R6           0.58316
           A1          -0.01370   0.14752
           A2          -0.01449  -0.01312   0.14619
           A3           0.00683  -0.00312  -0.00279   0.15993
           A4          -0.00284  -0.01690  -0.01761  -0.00211   0.14610
           A5          -0.00464  -0.01732  -0.01808  -0.00233  -0.01515
           A6          -0.00178  -0.00367  -0.00317  -0.00391  -0.01019
           A7          -0.00027   0.00040   0.00047  -0.00099  -0.00058
           A8          -0.00078  -0.00006  -0.00011   0.00010  -0.00009
           D1          -0.00645  -0.00044  -0.00036  -0.00160  -0.00541
           D2           0.00368  -0.00008  -0.00014   0.00180   0.00297
           D3          -0.00373   0.00013   0.00019  -0.00184  -0.00299
           D4           0.00640   0.00049   0.00041   0.00156   0.00540
                          A5        A6        A7        A8        D1
           A5           0.14362
           A6          -0.00987   0.15553
           A7          -0.00047  -0.00078   0.03608
           A8          -0.00010   0.00030   0.00006   0.03612
           D1          -0.00513   0.00073   0.00021   0.00004   0.00347
           D2           0.00276   0.00061  -0.00008  -0.00009  -0.00057
           D3          -0.00277  -0.00063   0.00008   0.00009   0.00057
           D4           0.00511  -0.00075  -0.00021  -0.00003  -0.00117
                          D2        D3        D4
           D2           0.00264
           D3          -0.00034   0.00264
           D4           0.00057  -0.00057   0.00347
 ITU=  0  1  1  0
 Use linear search instead of GDIIS.
     Eigenvalues ---    0.00230   0.00301   0.00414   0.00719   0.03614
     Eigenvalues ---    0.03633   0.14403   0.16000   0.16003   0.16708
     Eigenvalues ---    0.19730   0.57006   0.57681   0.57681   0.59443
 RFO step:  Lambda=-5.47687667D-03 EMin= 2.29784489D-03
 Quartic linear search produced a step of -0.13916.
 Iteration  1 RMS(Cart)=  0.06182207 RMS(Int)=  0.00470253
 Iteration  2 RMS(Cart)=  0.00427559 RMS(Int)=  0.00130309
 Iteration  3 RMS(Cart)=  0.00000797 RMS(Int)=  0.00130306
 Iteration  4 RMS(Cart)=  0.00000001 RMS(Int)=  0.00130306
 Variable       Old X    -DE/DX   Delta X   Delta X   Delta X     New X
                                 (Linear)    (Quad)   (Total)
    R1        9.01109   0.00439  -0.12264   0.28472   0.16208   9.17317
    R2        3.58495  -0.00368   0.00150  -0.02052  -0.01901   3.56594
    R3        1.89134  -0.01353  -0.00422  -0.02423  -0.02846   1.86288
    R4        1.89123  -0.01344  -0.00424  -0.02407  -0.02831   1.86293
    R5        1.86270  -0.01193  -0.00243  -0.02143  -0.02386   1.83883
    R6        1.86054  -0.01116  -0.00232  -0.02020  -0.02252   1.83802
    A1        2.21696  -0.00388  -0.01681   0.00237  -0.01716   2.19980
    A2        2.23247  -0.00394  -0.01787   0.00157  -0.01901   2.21345
    A3        1.79234   0.00800   0.01307   0.06281   0.07315   1.86548
    A4        2.24521  -0.00772  -0.01289  -0.03927  -0.05051   2.19470
    A5        2.26408  -0.00827  -0.01436  -0.04280  -0.05549   2.20859
    A6        1.77362   0.01602   0.01398   0.08591   0.10157   1.87519
    A7        2.94623  -0.00033   0.00575  -0.00362   0.00211   2.94835
    A8        2.90175   0.00041  -0.00628   0.01064   0.00444   2.90619
    D1        2.21842  -0.00136   0.06349  -0.26774  -0.20441   2.01401
    D2       -0.82350  -0.00136  -0.01115  -0.04331  -0.05451  -0.87801
    D3       -1.32940   0.00126   0.01646   0.03240   0.04890  -1.28049
    D4        1.91186   0.00125  -0.05818   0.25683   0.19881   2.11067
         Item               Value     Threshold  Converged?
 Maximum Force            0.016018     0.000450     NO 
 RMS     Force            0.007992     0.000300     NO 
 Maximum Displacement     0.099804     0.001800     NO 
 RMS     Displacement     0.061871     0.001200     NO 
 Predicted change in Energy=-3.513314D-03
 GradGradGradGradGradGradGradGradGradGradGradGradGradGradGradGradGradGrad

                          Input orientation:                          
 ---------------------------------------------------------------------
 Center     Atomic      Atomic             Coordinates (Angstroms)
 Number     Number       Type             X           Y           Z
 ---------------------------------------------------------------------
      1         29           0       -0.131847    0.234427   -0.424800
      2          8           0        0.131716    0.211843    4.422221
      3          8           0        0.166230    0.230986   -2.288117
      4          1           0       -0.367604   -0.244395   -2.948344
      5          1           0        0.924777    0.622894   -2.753990
      6          1           0        0.891162   -0.113040    4.960252
      7          1           0       -0.515640    0.608628    5.050975
 ---------------------------------------------------------------------
                    Distance matrix (angstroms):
                    1          2          3          4          5
     1  Cu   0.000000
     2  O    4.854234   0.000000
     3  O    1.887012   6.710455   0.000000
     4  H    2.579366   7.401534   0.973069   0.000000
     5  H    2.586984   7.231591   0.972637   1.568506   0.000000
     6  H    5.492364   0.985792   7.292650   8.009222   7.749339
     7  H    5.501948   0.985819   7.380368   8.046034   7.936780
                    6          7
     6  H    0.000000
     7  H    1.583707   0.000000
 Stoichiometry    CuH4O2(2+,2)
 Framework group  C1[X(CuH4O2)]
 Deg. of freedom    15
 Full point group                 C1      NOp   1
 Largest Abelian subgroup         C1      NOp   1
 Largest concise Abelian subgroup C1      NOp   1
                         Standard orientation:                         
 ---------------------------------------------------------------------
 Center     Atomic      Atomic             Coordinates (Angstroms)
 Number     Number       Type             X           Y           Z
 ---------------------------------------------------------------------
      1         29           0       -0.611382   -0.113001    0.005343
      2          8           0        4.238847    0.083160   -0.014378
      3          8           0       -2.470376    0.210925    0.000096
      4          1           0       -3.137640   -0.314529   -0.474794
      5          1           0       -2.925924    0.976566    0.390343
      6          1           0        4.787591    0.834481   -0.340233
      7          1           0        4.858283   -0.572162    0.383982
 ---------------------------------------------------------------------
 Rotational constants (GHZ):    116.3128577      1.0657904      1.0589904
 Standard basis: 6-311G(d) (5D, 7F)
 There are   102 symmetry adapted cartesian basis functions of A   symmetry.
 There are    94 symmetry adapted basis functions of A   symmetry.
    94 basis functions,   165 primitive gaussians,   102 cartesian basis functions
    24 alpha electrons       23 beta electrons
       nuclear repulsion energy       133.4047387529 Hartrees.
 NAtoms=    7 NActive=    7 NUniq=    7 SFac= 1.00D+00 NAtFMM=   60 NAOKFM=F Big=F
 Integral buffers will be    131072 words long.
 Raffenetti 2 integral format.
 Two-electron integral symmetry is turned on.
 One-electron integrals computed using PRISM.
 NBasis=    94 RedAO= T EigKep=  9.37D-03  NBF=    94
 NBsUse=    94 1.00D-06 EigRej= -1.00D+00 NBFU=    94
 Initial guess from the checkpoint file:  "pescuh2o2.chk"
 B after Tr=     0.000000    0.000000    0.000000
         Rot=    0.999947   -0.010314    0.000039    0.000461 Ang=  -1.18 deg.
 Initial guess <Sx>= 0.0000 <Sy>= 0.0000 <Sz>= 0.5000 <S**2>= 0.7624 S= 0.5062
 ExpMin= 4.08D-02 ExpMax= 3.37D+05 ExpMxC= 1.14D+04 IAcc=2 IRadAn=         4 AccDes= 0.00D+00
 Harris functional with IExCor=  402 and IRadAn=       4 diagonalized for initial guess.
 HarFok:  IExCor=  402 AccDes= 0.00D+00 IRadAn=         4 IDoV= 1 UseB2=F ITyADJ=14
 ICtDFT=  3500011 ScaDFX=  1.000000  1.000000  1.000000  1.000000
 FoFCou: FMM=F IPFlag=           0 FMFlag=      100000 FMFlg1=           0
         NFxFlg=           0 DoJE=T BraDBF=F KetDBF=T FulRan=T
         wScrn=  0.000000 ICntrl=     500 IOpCl=  0 I1Cent=   200000004 NGrid=           0
         NMat0=    1 NMatS0=      1 NMatT0=    0 NMatD0=    1 NMtDS0=    0 NMtDT0=    0
 Petite list used in FoFCou.
 Keep R1 and R2 ints in memory in canonical form, NReq=21958878.
 Requested convergence on RMS density matrix=1.00D-08 within  64 cycles.
 Requested convergence on MAX density matrix=1.00D-06.
 Requested convergence on             energy=1.00D-06.
 No special actions if energy rises.
 SCF Done:  E(UB3LYP) =  -1792.55560438     A.U. after   23 cycles
            NFock= 23  Conv=0.87D-08     -V/T= 2.0007
 <Sx>= 0.0000 <Sy>= 0.0000 <Sz>= 0.5000 <S**2>= 0.7626 S= 0.5063
 <L.S>= 0.000000000000E+00
 Annihilation of the first spin contaminant:
 S**2 before annihilation     0.7626,   after     0.7500
 QCSCF skips out because SCF is already converged.
 Calling FoFJK, ICntrl=      2127 FMM=F ISym2X=0 I1Cent= 0 IOpClX= 1 NMat=1 NMatS=1 NMatT=0.
 ***** Axes restored to original set *****
 -------------------------------------------------------------------
 Center     Atomic                   Forces (Hartrees/Bohr)
 Number     Number              X              Y              Z
 -------------------------------------------------------------------
      1       29          -0.000015971    0.000264529   -0.004856205
      2        8           0.001025417    0.000753469    0.009335023
      3        8           0.001404791   -0.001737942   -0.006855976
      4        1          -0.000364812    0.001033271    0.003685458
      5        1          -0.001274021    0.000407925    0.003630411
      6        1          -0.002251760    0.000590991   -0.002324523
      7        1           0.001476354   -0.001312243   -0.002614189
 -------------------------------------------------------------------
 Cartesian Forces:  Max     0.009335023 RMS     0.003205089

 GradGradGradGradGradGradGradGradGradGradGradGradGradGradGradGradGradGrad
 Berny optimization.
 Using GEDIIS/GDIIS optimizer.
 FormGI is forming the generalized inverse of G from B-inverse, IUseBI=4.
 Internal  Forces:  Max     0.004403627 RMS     0.002001854
 Search for a local minimum.
 Step number   5 out of a maximum of  100
 All quantities printed in internal units (Hartrees-Bohrs-Radians)
 Mixed Optimization -- RFO/linear search
 Update second derivatives using D2CorX and points    4    5
 DE= -3.75D-03 DEPred=-3.51D-03 R= 1.07D+00
 TightC=F SS=  1.41D+00  RLast= 3.71D-01 DXNew= 1.4270D+00 1.1143D+00
 Trust test= 1.07D+00 RLast= 3.71D-01 DXMaxT set to 1.11D+00
 The second derivative matrix:
                          R1        R2        R3        R4        R5
           R1           0.00495
           R2           0.00095   0.19632
           R3           0.00033   0.00575   0.56106
           R4           0.00029   0.00567  -0.01577   0.56102
           R5           0.00138   0.00705  -0.00823  -0.00828   0.57434
           R6           0.00113   0.00702  -0.00748  -0.00753  -0.00192
           A1          -0.00572  -0.00178  -0.00993  -0.00992  -0.00661
           A2          -0.00599  -0.00211  -0.01154  -0.01153  -0.00788
           A3          -0.00416   0.00740   0.02269   0.02251   0.02032
           A4          -0.00327   0.00348  -0.00826  -0.00831  -0.00325
           A5          -0.00323   0.00220  -0.01194  -0.01196  -0.00650
           A6          -0.00573   0.00203   0.01561   0.01549   0.01278
           A7           0.00066  -0.00006   0.00131   0.00131   0.00081
           A8          -0.00060  -0.00062  -0.00182  -0.00181  -0.00151
           D1           0.00111  -0.00190  -0.00133  -0.00129  -0.00199
           D2          -0.00046   0.00233   0.00387   0.00383   0.00401
           D3           0.00051  -0.00231  -0.00372  -0.00368  -0.00390
           D4          -0.00107   0.00191   0.00148   0.00144   0.00210
                          R6        A1        A2        A3        A4
           R6           0.57540
           A1          -0.00684   0.15038
           A2          -0.00806  -0.01036   0.14886
           A3           0.01920  -0.00874  -0.00800   0.14338
           A4          -0.00325  -0.01176  -0.01275   0.00139   0.14863
           A5          -0.00637  -0.01222  -0.01326   0.00256  -0.01334
           A6           0.01170  -0.01386  -0.01270  -0.02436  -0.00856
           A7           0.00076   0.00080   0.00087  -0.00184   0.00018
           A8          -0.00147  -0.00055  -0.00058   0.00054  -0.00071
           D1          -0.00207   0.00078   0.00083  -0.00554  -0.00246
           D2           0.00392   0.00055   0.00046   0.00192   0.00344
           D3          -0.00382  -0.00043  -0.00034  -0.00209  -0.00334
           D4           0.00218  -0.00065  -0.00071   0.00537   0.00257
                          A5        A6        A7        A8        D1
           A5           0.14466
           A6          -0.00617   0.13248
           A7           0.00028  -0.00230   0.03614
           A8          -0.00069   0.00128  -0.00001   0.03619
           D1          -0.00212  -0.00589   0.00038  -0.00020   0.00391
           D2           0.00315   0.00035   0.00001  -0.00017  -0.00023
           D3          -0.00304  -0.00061   0.00000   0.00016   0.00026
           D4           0.00223   0.00563  -0.00037   0.00019  -0.00157
                          D2        D3        D4
           D2           0.00271
           D3          -0.00039   0.00268
           D4           0.00024  -0.00027   0.00384
 ITU=  1  0  1  1  0
 Use linear search instead of GDIIS.
     Eigenvalues ---    0.00230   0.00238   0.00333   0.00650   0.03603
     Eigenvalues ---    0.03624   0.12199   0.15998   0.16017   0.16413
     Eigenvalues ---    0.19705   0.54726   0.57680   0.57681   0.58081
 RFO step:  Lambda=-2.79140074D-03 EMin= 2.29689197D-03
 Quartic linear search produced a step of  0.39783.
 Iteration  1 RMS(Cart)=  0.06214931 RMS(Int)=  0.10811161
 Iteration  2 RMS(Cart)=  0.06056560 RMS(Int)=  0.06097985
 Iteration  3 RMS(Cart)=  0.06165337 RMS(Int)=  0.01401882
 Iteration  4 RMS(Cart)=  0.01803186 RMS(Int)=  0.00254431
 Iteration  5 RMS(Cart)=  0.00000078 RMS(Int)=  0.00254431
 Variable       Old X    -DE/DX   Delta X   Delta X   Delta X     New X
                                 (Linear)    (Quad)   (Total)
    R1        9.17317   0.00440   0.06448   0.59391   0.65839   9.83156
    R2        3.56594  -0.00050  -0.00756   0.00205  -0.00552   3.56041
    R3        1.86288  -0.00320  -0.01132   0.00358  -0.00774   1.85514
    R4        1.86293  -0.00316  -0.01126   0.00365  -0.00761   1.85532
[...]
 Iteration  8 RMS(Cart)=  0.06171709 RMS(Int)=  0.32997485
 Iteration  9 RMS(Cart)=  0.06171710 RMS(Int)=  0.28283440
 Iteration 10 RMS(Cart)=  0.06171712 RMS(Int)=  0.23569394
 Iteration 11 RMS(Cart)=  0.06171713 RMS(Int)=  0.18855349
 Iteration 12 RMS(Cart)=  0.06171715 RMS(Int)=  0.14141304
 Iteration 13 RMS(Cart)=  0.06171716 RMS(Int)=  0.09427259
 Iteration 14 RMS(Cart)=  0.06171718 RMS(Int)=  0.04713214
 Iteration 15 RMS(Cart)=  0.06170629 RMS(Int)=  0.00003746
 Iteration 16 RMS(Cart)=  0.00000004 RMS(Int)=  0.00003746
 Variable       Old X    -DE/DX   Delta X   Delta X   Delta X     New X
                                 (Linear)    (Quad)   (Total)
    R1      107.49749   0.00007   2.99433   0.00564   2.99997 110.49745
    R2        3.57630  -0.00006   0.00005   0.00005   0.00010   3.57640
    R3        1.86130   0.00006   0.00001   0.00000   0.00001   1.86132
    R4        1.86129   0.00006   0.00001   0.00000   0.00000   1.86130
    R5        1.82654  -0.00004   0.00002  -0.00003  -0.00001   1.82653
    R6        1.82594   0.00027  -0.00008   0.00007  -0.00001   1.82592
    A1        2.17376  -0.00002   0.00165   0.00008   0.00165   2.17541
    A2        2.17637  -0.00002   0.00122   0.00010   0.00122   2.17760
    A3        1.91419   0.00004   0.00010  -0.00010  -0.00009   1.91410
    A4        2.18832   0.00003  -0.00038   0.00020  -0.00018   2.18814
    A5        2.18899   0.00000   0.00032  -0.00016   0.00016   2.18914
    A6        1.90587  -0.00003   0.00007  -0.00004   0.00002   1.90590
    A7        3.14500   0.00004  -0.00381   0.00049  -0.00331   3.14169
    A8        1.34179   0.00000   0.01318  -0.00021   0.01297   1.35477
    D1        1.86729  -0.00002  -0.02008  -0.00439  -0.02447   1.84282
    D2       -0.79623   0.00000  -0.01368  -0.00578  -0.01946  -0.81569
    D3       -1.48429   0.00000  -0.00383  -0.00393  -0.00775  -1.49204
    D4        2.13538   0.00002   0.00257  -0.00532  -0.00274   2.13264
         Item               Value     Threshold  Converged?
 Maximum Force            0.000270     0.000450     YES
 RMS     Force            0.000074     0.000300     YES
 Maximum Displacement     1.715698     0.001800     NO 
 RMS     Displacement     0.926212     0.001200     NO 
 Predicted change in Energy=-2.105900D-04
 Optimization stopped.
    -- Number of steps exceeded,  NStep= 100
    -- Flag reset to prevent archiving.
                           ----------------------------
                           ! Non-Optimized Parameters !
                           ! (Angstroms and Degrees)  !
 --------------------------                            --------------------------
 ! Name  Definition              Value          Derivative Info.                !
 --------------------------------------------------------------------------------
 ! R1    R(1,2)                 58.4727         -DE/DX =    0.0001              !
 ! R2    R(1,3)                  1.8926         -DE/DX =   -0.0001              !
 ! R3    R(2,6)                  0.985          -DE/DX =    0.0001              !
 ! R4    R(2,7)                  0.985          -DE/DX =    0.0001              !
 ! R5    R(3,4)                  0.9666         -DE/DX =    0.0                 !
 ! R6    R(3,5)                  0.9662         -DE/DX =    0.0003              !
 ! A1    A(1,2,6)              124.6417         -DE/DX =    0.0                 !
 ! A2    A(1,2,7)              124.7672         -DE/DX =    0.0                 !
 ! A3    A(6,2,7)              109.6699         -DE/DX =    0.0                 !
 ! A4    A(1,3,4)              125.371          -DE/DX =    0.0                 !
 ! A5    A(1,3,5)              125.4287         -DE/DX =    0.0                 !
 ! A6    A(4,3,5)              109.1999         -DE/DX =    0.0                 !
 ! A7    L(2,1,3,5,-1)         180.0058         -DE/DX =    0.0                 !
 ! A8    L(2,1,3,5,-2)          77.6223         -DE/DX =    0.0                 !
 ! D1    D(6,2,3,4)            105.5856         -DE/DX =    0.0                 !
 ! D2    D(6,2,3,5)            -46.7357         -DE/DX =    0.0                 !
 ! D3    D(7,2,3,4)            -85.4876         -DE/DX =    0.0                 !
 ! D4    D(7,2,3,5)            122.191          -DE/DX =    0.0                 !
 --------------------------------------------------------------------------------
 GradGradGradGradGradGradGradGradGradGradGradGradGradGradGradGradGradGrad

                          Input orientation:                          
 ---------------------------------------------------------------------
 Center     Atomic      Atomic             Coordinates (Angstroms)
 Number     Number       Type             X           Y           Z
 ---------------------------------------------------------------------
      1         29           0       -0.103627    0.890277  -22.811480
      2          8           0        0.238024    0.263297   34.069259
      3          8           0        0.111695    0.062807  -24.499815
      4          1           0       -0.172317   -0.833453  -24.724103
      5          1           0        0.519567    0.470268  -25.275215
      6          1           0        1.052632    0.256951   34.622898
      7          1           0       -0.547182    0.441196   34.636653
 ---------------------------------------------------------------------
                    Distance matrix (angstroms):
                    1          2          3          4          5
     1  Cu   0.000000
     2  O   56.885220   0.000000
     3  O    1.892498  58.569553   0.000000
     4  H    2.575673  58.805022   0.966565   0.000000
     5  H    2.575805  59.345503   0.966245   1.575473   0.000000
     6  H   57.449506   0.984958  59.130519  59.369655  59.900865
     7  H   57.451600   0.984953  59.141348  59.375622  59.921371
                    6          7
     6  H    0.000000
     7  H    1.610447   0.000000
 Stoichiometry    CuH4O2(2+,2)
 Framework group  C1[X(CuH4O2)]
 Deg. of freedom    15
 Full point group                 C1      NOp   1
 Largest Abelian subgroup         C1      NOp   1
 Largest concise Abelian subgroup C1      NOp   1
                         Standard orientation:                         
 ---------------------------------------------------------------------
 Center     Atomic      Atomic             Coordinates (Angstroms)
 Number     Number       Type             X           Y           Z
 ---------------------------------------------------------------------
      1         29           0      -11.268344   -0.240878   -0.004700
      2          8           0       45.616193    0.037899   -0.005753
      3          8           0      -12.950402    0.626269    0.012120
      4          1           0      -13.170452    1.430331   -0.477075
      5          1           0      -13.726349    0.333664    0.508022
      6          1           0       46.173808    0.234655    0.781961
      7          1           0       46.178644   -0.326528   -0.727538
 ---------------------------------------------------------------------
 Rotational constants (GHZ):     36.5763942      0.0104260      0.0104237

 **********************************************************************

            Population analysis using the SCF density.

 **********************************************************************

 Orbital symmetries:
 Alpha Orbitals:
       Occupied  (A) (A) (A) (A) (A) (A) (A) (A) (A) (A) (A) (A)
                 (A) (A) (A) (A) (A) (A) (A) (A) (A) (A) (A) (A)
       Virtual   (A) (A) (A) (A) (A) (A) (A) (A) (A) (A) (A) (A)
                 (A) (A) (A) (A) (A) (A) (A) (A) (A) (A) (A) (A)
                 (A) (A) (A) (A) (A) (A) (A) (A) (A) (A) (A) (A)
                 (A) (A) (A) (A) (A) (A) (A) (A) (A) (A) (A) (A)
                 (A) (A) (A) (A) (A) (A) (A) (A) (A) (A) (A) (A)
                 (A) (A) (A) (A) (A) (A) (A) (A) (A) (A)
 Beta  Orbitals:
       Occupied  (A) (A) (A) (A) (A) (A) (A) (A) (A) (A) (A) (A)
                 (A) (A) (A) (A) (A) (A) (A) (A) (A) (A) (A)
       Virtual   (A) (A) (A) (A) (A) (A) (A) (A) (A) (A) (A) (A)
                 (A) (A) (A) (A) (A) (A) (A) (A) (A) (A) (A) (A)
                 (A) (A) (A) (A) (A) (A) (A) (A) (A) (A) (A) (A)
                 (A) (A) (A) (A) (A) (A) (A) (A) (A) (A) (A) (A)
                 (A) (A) (A) (A) (A) (A) (A) (A) (A) (A) (A) (A)
                 (A) (A) (A) (A) (A) (A) (A) (A) (A) (A) (A)
 The electronic state is 2-A.
 Alpha  occ. eigenvalues -- -323.30086 -39.09131 -34.32064 -34.30921 -34.30895
 Alpha  occ. eigenvalues --  -19.52239 -19.46468  -4.62836  -3.14327  -3.11760
 Alpha  occ. eigenvalues --   -3.11688  -1.38011  -1.35322  -0.87789  -0.87766
 Alpha  occ. eigenvalues --   -0.79599  -0.72246  -0.71553  -0.67137  -0.61773
 Alpha  occ. eigenvalues --   -0.61248  -0.60728  -0.60726  -0.60213
 Alpha virt. eigenvalues --   -0.39349  -0.22565  -0.21571  -0.15571  -0.13367
 Alpha virt. eigenvalues --   -0.10799   0.05327   0.12328   0.12865   0.13092
 Alpha virt. eigenvalues --    0.38346   0.40851   0.42651   0.47487   0.52305
 Alpha virt. eigenvalues --    0.59694   0.80750   0.83257   0.96743   0.97778
 Alpha virt. eigenvalues --    1.12101   1.12193   1.13309   1.15336   1.26736
 Alpha virt. eigenvalues --    1.34842   1.72055   1.73229   1.74072   1.75122
 Alpha virt. eigenvalues --    2.36933   2.40067   2.40436   2.41540   2.46200
 Alpha virt. eigenvalues --    2.62189   2.76034   2.80645   2.88230   3.06649
 Alpha virt. eigenvalues --    3.09736   3.62657   3.62930   3.62941   3.63217
 Alpha virt. eigenvalues --    3.63333   3.63582   3.63619   4.32485   4.40204
 Alpha virt. eigenvalues --    4.46044   4.59794   4.60727   4.67538   6.85140
 Alpha virt. eigenvalues --    6.85160   6.87266   6.90037   6.95876   8.94828
 Alpha virt. eigenvalues --    8.97742   9.22645  31.63632  42.41370  42.43259
 Alpha virt. eigenvalues --   42.59943  49.31416  49.38930 183.70379 978.95746
  Beta  occ. eigenvalues -- -323.30090 -39.08313 -34.30937 -34.30500 -34.30451
  Beta  occ. eigenvalues --  -19.50302 -19.46413  -4.61167  -3.11286  -3.10641
  Beta  occ. eigenvalues --   -3.10512  -1.35214  -1.33082  -0.87734  -0.86349
  Beta  occ. eigenvalues --   -0.78898  -0.70121  -0.66969  -0.61135  -0.59795
  Beta  occ. eigenvalues --   -0.59794  -0.59708  -0.53356
  Beta virt. eigenvalues --   -0.53170  -0.38705  -0.22508  -0.20894  -0.15530
  Beta virt. eigenvalues --   -0.12949  -0.10735   0.05394   0.12376   0.13123
  Beta virt. eigenvalues --    0.13524   0.38733   0.40898   0.48510   0.48526
  Beta virt. eigenvalues --    0.52359   0.60646   0.80890   0.85910   0.97056
  Beta virt. eigenvalues --    0.98012   1.12393   1.12514   1.15291   1.15533
  Beta virt. eigenvalues --    1.26945   1.35702   1.72122   1.73059   1.74554
  Beta virt. eigenvalues --    1.75161   2.41597   2.42804   2.43320   2.46331
  Beta virt. eigenvalues --    2.46708   2.62509   2.80945   2.81847   2.88836
  Beta virt. eigenvalues --    3.07560   3.09843   3.63034   3.63041   3.64019
  Beta virt. eigenvalues --    3.64142   3.64185   3.64568   3.65392   4.40252
  Beta virt. eigenvalues --    4.41104   4.47724   4.60978   4.61547   4.67591
  Beta virt. eigenvalues --    6.85890   6.85919   6.87763   6.90564   6.99130
  Beta virt. eigenvalues --    8.95603   8.98400   9.24449  31.64716  42.42003
  Beta virt. eigenvalues --   42.43802  42.61383  49.33375  49.38989 183.70786
  Beta virt. eigenvalues --  978.95822
          Condensed to atoms (all electrons):
               1          2          3          4          5          6
     1  Cu  27.760417   0.000000   0.092071  -0.004973  -0.004970   0.000000
     2  O    0.000000   7.859006   0.000000   0.000000   0.000000   0.232759
     3  O    0.092071   0.000000   8.317461   0.254333   0.254363   0.000000
     4  H   -0.004973   0.000000   0.254333   0.247279  -0.021130   0.000000
     5  H   -0.004970   0.000000   0.254363  -0.021130   0.247125   0.000000
     6  H    0.000000   0.232759   0.000000   0.000000   0.000000   0.264346
     7  H    0.000000   0.232759   0.000000   0.000000   0.000000  -0.015201
               7
     1  Cu   0.000000
     2  O    0.232759
     3  O    0.000000
     4  H    0.000000
     5  H    0.000000
     6  H   -0.015201
     7  H    0.264345
          Atomic-Atomic Spin Densities.
               1          2          3          4          5          6
     1  Cu   0.275621   0.000000  -0.005892   0.000273   0.000274   0.000000
     2  O    0.000000   0.772245   0.000000   0.000000   0.000000  -0.008298
     3  O   -0.005892   0.000000   0.022849   0.000015   0.000015   0.000000
     4  H    0.000273   0.000000   0.000015   0.000134   0.000112   0.000000
     5  H    0.000274   0.000000   0.000015   0.000112   0.000134   0.000000
     6  H    0.000000  -0.008298   0.000000   0.000000   0.000000  -0.015023
     7  H    0.000000  -0.008298   0.000000   0.000000   0.000000   0.001330
               7
     1  Cu   0.000000
     2  O   -0.008298
     3  O    0.000000
     4  H    0.000000
     5  H    0.000000
     6  H    0.001330
     7  H   -0.015023
 Mulliken charges and spin densities:
               1          2
     1  Cu   1.157456   0.270276
     2  O   -0.324524   0.755650
     3  O   -0.918228   0.016986
     4  H    0.524491   0.000534
     5  H    0.524612   0.000536
     6  H    0.518096  -0.021991
     7  H    0.518097  -0.021990
 Sum of Mulliken charges =   2.00000   1.00000
 Mulliken charges and spin densities with hydrogens summed into heavy atoms:
               1          2
     1  Cu   1.157456   0.270276
     2  O    0.711668   0.711668
     3  O    0.130876   0.018056
 Electronic spatial extent (au):  <R**2>=          87854.6379
 Charge=              2.0000 electrons
 Dipole moment (field-independent basis, Debye):
    X=             85.4052    Y=              0.0326    Z=              0.1380  Tot=             85.4053
 Quadrupole moment (field-independent basis, Debye-Ang):
   XX=           8217.5653   YY=            -15.9629   ZZ=            -16.8091
   XY=            -20.9205   XZ=              5.4918   YZ=             -0.5612
 Traceless Quadrupole moment (field-independent basis, Debye-Ang):
   XX=           5489.3009   YY=          -2744.2273   ZZ=          -2745.0736
   XY=            -20.9205   XZ=              5.4918   YZ=             -0.5612
 Octapole moment (field-independent basis, Debye-Ang**2):
  XXX=         330624.7968  YYY=             -1.1629  ZZZ=              0.1936  XYY=           -109.1433
  XXY=           -421.9474  XXZ=            318.2024  XZZ=             43.3244  YZZ=             -1.6017
  YYZ=             -2.8347  XYZ=             68.2068
 Hexadecapole moment (field-independent basis, Debye-Ang**3):
 XXXX=       15890040.1615 YYYY=            -23.0727 ZZZZ=            -13.3603 XXXY=         -29105.7481
 XXXZ=          12997.8396 YYYX=             -8.6864 YYYZ=             -4.0664 ZZZX=             13.6135
 ZZZY=              0.0859 XXYY=         -12190.4493 XXZZ=          -7615.2233 YYZZ=             -6.6524
 XXYZ=           1931.4115 YYXZ=             32.8280 ZZXY=              9.8863
 N-N= 9.840184090011D+01 E-N=-4.468345709734D+03  KE= 1.791467950658D+03
                          Isotropic Fermi Contact Couplings
        Atom                 a.u.       MegaHertz       Gauss      10(-4) cm-1
     1  Cu(63)            -0.26407    -313.22044    -111.76484    -104.47909
     2  O(17)              0.05431     -32.92505     -11.74848     -10.98262
     3  O(17)              0.03446     -20.89040      -7.45421      -6.96829
     4  H(1)               0.00049       2.19633       0.78370       0.73262
     5  H(1)               0.00049       2.20243       0.78588       0.73465
     6  H(1)              -0.01170     -52.30163     -18.66252     -17.44595
     7  H(1)              -0.01170     -52.30130     -18.66240     -17.44584
 --------------------------------------------------------
       Center         ----  Spin Dipole Couplings  ----
                      3XX-RR        3YY-RR        3ZZ-RR
 --------------------------------------------------------
     1   Atom        0.988907     -0.289957     -0.698950
     2   Atom       -1.397357      2.343938     -0.946581
     3   Atom        0.048964     -0.013096     -0.035868
     4   Atom        0.000559      0.002032     -0.002591
     5   Atom        0.005258     -0.002725     -0.002533
     6   Atom       -0.021476     -0.036308      0.057784
     7   Atom       -0.020277     -0.015478      0.035754
 --------------------------------------------------------
                        XY            XZ            YZ
 --------------------------------------------------------
     1   Atom       -0.894812      0.035577      0.108474
     2   Atom        0.660283     -0.245230     -1.416705
     3   Atom       -0.043907     -0.001083      0.000438
     4   Atom       -0.004028      0.001001     -0.003047
     5   Atom       -0.000597     -0.003181     -0.000944
     6   Atom        0.032168      0.094289      0.019375
     7   Atom       -0.037495     -0.092818      0.043295
 --------------------------------------------------------


 ---------------------------------------------------------------------------------
              Anisotropic Spin Dipole Couplings in Principal Axis System
 ---------------------------------------------------------------------------------

       Atom             a.u.   MegaHertz   Gauss  10(-4) cm-1        Axes

              Baa    -0.8403  -118.973   -42.453   -39.685  0.3532  0.6972 -0.6239
     1 Cu(63) Bbb    -0.6091   -86.239   -30.772   -28.766  0.2915  0.5516  0.7815
              Bcc     1.4494   205.212    73.225    68.451  0.8890 -0.4579 -0.0084
 
              Baa    -1.5106   109.307    39.003    36.461  0.9873 -0.1478  0.0581
     2 O(17)  Bbb    -1.4725   106.548    38.019    35.540 -0.0030  0.3485  0.9373
              Bcc     2.9831  -215.855   -77.022   -72.001  0.1588  0.9256 -0.3436
 
              Baa    -0.0360     2.603     0.929     0.868  0.2948  0.5509  0.7808
     3 O(17)  Bbb    -0.0357     2.586     0.923     0.863  0.3530  0.6965 -0.6247
              Bcc     0.0717    -5.189    -1.852    -1.731  0.8880 -0.4598 -0.0108
 
              Baa    -0.0044    -2.339    -0.835    -0.780  0.2943  0.5545  0.7784
     4 H(1)   Bbb    -0.0020    -1.074    -0.383    -0.358  0.7636  0.3533 -0.5404
              Bcc     0.0064     3.413     1.218     1.138 -0.5747  0.7535 -0.3194
 
              Baa    -0.0044    -2.339    -0.835    -0.780  0.2921  0.5501  0.7823
     5 H(1)   Bbb    -0.0020    -1.075    -0.383    -0.358 -0.1617  0.8346 -0.5265
              Bcc     0.0064     3.414     1.218     1.139  0.9426 -0.0273 -0.3328
 
              Baa    -0.0895   -47.771   -17.046   -15.935  0.8168 -0.3186 -0.4809
     6 H(1)   Bbb    -0.0380   -20.266    -7.231    -6.760  0.1588  0.9256 -0.3436
              Bcc     0.1275    68.037    24.277    22.695  0.5546  0.2043  0.8067
 
              Baa    -0.0895   -47.772   -17.046   -15.935  0.8134  0.0746  0.5768
     7 H(1)   Bbb    -0.0380   -20.266    -7.231    -6.760  0.1588  0.9256 -0.3436
              Bcc     0.1275    68.037    24.277    22.695 -0.5596  0.3711  0.7411
 

 ---------------------------------------------------------------------------------

 B after Tr=     0.327606   -0.709003   22.610916
         Rot=    0.975135    0.006732    0.004575   -0.221462 Ang=  25.61 deg.
 Atom   5 needs variable   4=   0.9662452540 but is    0.9665653689
 Input z-matrix variables are not compatible with final structure.


 BRING ME INTO THE COMPANY OF THOSE WHO SEEK TRUTH,
 AND DELIVER ME FROM THOSE WHO HAVE FOUND IT.
 Error termination request processed by link 9999.
 Error termination via Lnk1e in /usr/local/g09/l9999.exe at Sat Jun 18 23:40:21 2016.
 Job cpu time:       0 days  0 hours 58 minutes  4.9 seconds.
 File lengths (MBytes):  RWF=      9 Int=      0 D2E=      0 Chk=      3 Scr=      1
