 Entering Gaussian System, Link 0=g09
 Input=2coord_b3lyp_A_F_155.inp
 Output=2coord_b3lyp_A_F_155.log
 Initial command:
 /usr/local/g09/l1.exe "./Gau-17894.inp" -scrdir="./"
 Entering Link 1 = /usr/local/g09/l1.exe PID=     17896.
  
 Copyright (c) 1988,1990,1992,1993,1995,1998,2003,2009,2013,
            Gaussian, Inc.  All Rights Reserved.
  
 This is part of the Gaussian(R) 09 program.  It is based on
 the Gaussian(R) 03 system (copyright 2003, Gaussian, Inc.),
 the Gaussian(R) 98 system (copyright 1998, Gaussian, Inc.),
 the Gaussian(R) 94 system (copyright 1995, Gaussian, Inc.),
 the Gaussian 92(TM) system (copyright 1992, Gaussian, Inc.),
 the Gaussian 90(TM) system (copyright 1990, Gaussian, Inc.),
 the Gaussian 88(TM) system (copyright 1988, Gaussian, Inc.),
 the Gaussian 86(TM) system (copyright 1986, Carnegie Mellon
 University), and the Gaussian 82(TM) system (copyright 1983,
 Carnegie Mellon University). Gaussian is a federally registered
 trademark of Gaussian, Inc.
  
 This software contains proprietary and confidential information,
 including trade secrets, belonging to Gaussian, Inc.
  
 This software is provided under written license and may be
 used, copied, transmitted, or stored only in accord with that
 written license.
  
 The following legend is applicable only to US Government
 contracts under FAR:
  
                    RESTRICTED RIGHTS LEGEND
  
 Use, reproduction and disclosure by the US Government is
 subject to restrictions as set forth in subparagraphs (a)
 and (c) of the Commercial Computer Software - Restricted
 Rights clause in FAR 52.227-19.
  
 Gaussian, Inc.
 340 Quinnipiac St., Bldg. 40, Wallingford CT 06492
  
  
 ---------------------------------------------------------------
 Warning -- This program may not be used in any manner that
 competes with the business of Gaussian, Inc. or will provide
 assistance to any competitor of Gaussian, Inc.  The licensee
 of this program is prohibited from giving any competitor of
 Gaussian, Inc. access to this program.  By using this program,
 the user acknowledges that Gaussian, Inc. is engaged in the
 business of creating and licensing software in the field of
 computational chemistry and represents and warrants to the
 licensee that it is not a competitor of Gaussian, Inc. and that
 it will not use this program in any manner prohibited above.
 ---------------------------------------------------------------
  

 Cite this work as:
 Gaussian 09, Revision D.01,
 M. J. Frisch, G. W. Trucks, H. B. Schlegel, G. E. Scuseria, 
 M. A. Robb, J. R. Cheeseman, G. Scalmani, V. Barone, B. Mennucci, 
 G. A. Petersson, H. Nakatsuji, M. Caricato, X. Li, H. P. Hratchian, 
 A. F. Izmaylov, J. Bloino, G. Zheng, J. L. Sonnenberg, M. Hada, 
 M. Ehara, K. Toyota, R. Fukuda, J. Hasegawa, M. Ishida, T. Nakajima, 
 Y. Honda, O. Kitao, H. Nakai, T. Vreven, J. A. Montgomery, Jr., 
 J. E. Peralta, F. Ogliaro, M. Bearpark, J. J. Heyd, E. Brothers, 
 K. N. Kudin, V. N. Staroverov, T. Keith, R. Kobayashi, J. Normand, 
 K. Raghavachari, A. Rendell, J. C. Burant, S. S. Iyengar, J. Tomasi, 
 M. Cossi, N. Rega, J. M. Millam, M. Klene, J. E. Knox, J. B. Cross, 
 V. Bakken, C. Adamo, J. Jaramillo, R. Gomperts, R. E. Stratmann, 
 O. Yazyev, A. J. Austin, R. Cammi, C. Pomelli, J. W. Ochterski, 
 R. L. Martin, K. Morokuma, V. G. Zakrzewski, G. A. Voth, 
 P. Salvador, J. J. Dannenberg, S. Dapprich, A. D. Daniels, 
 O. Farkas, J. B. Foresman, J. V. Ortiz, J. Cioslowski, 
 and D. J. Fox, Gaussian, Inc., Wallingford CT, 2013.
 
 ******************************************
 Gaussian 09:  EM64L-G09RevD.01 24-Apr-2013
                18-Jun-2016 
 ******************************************
 %mem=2GB
 %nprocshared=1
 Will use up to    1 processors via shared memory.
 %chk=pescuh2o2.chk
 -------------------------------------------------------
 #opt=(modredundant,maxcycles=350) B3LYP/6-311G* scf=xqc
 -------------------------------------------------------
 1/6=350,14=-1,18=120,19=15,26=3,38=1/1,3;
 2/9=110,12=2,17=6,18=5,40=1/2;
 3/5=4,6=6,7=1,11=2,16=1,25=1,30=1,71=1,74=-5/1,2,3;
 4//1;
 5/5=2,8=3,13=1,38=5/2,8;
 6/7=2,8=2,9=2,10=2,28=1/1;
 7//1,2,3,16;
 1/6=350,14=-1,18=20,19=15,26=3/3(2);
 2/9=110/2;
 99//99;
 2/9=110/2;
 3/5=4,6=6,7=1,11=2,16=1,25=1,30=1,71=1,74=-5/1,2,3;
 4/5=5,16=3,69=1/1;
 5/5=2,8=3,13=1,38=5/2,8;
 7//1,2,3,16;
 1/6=350,14=-1,18=20,19=15,26=3/3(-5);
 2/9=110/2;
 6/7=2,8=2,9=2,10=2,19=2,28=1/1;
 99/9=1/99;
 ---------
 cu2(h20)2
 ---------
 Symbolic Z-matrix:
 Charge =  2 Multiplicity = 2
 Cu
 O                    1    A
 O                    1    B        2    H
 H                    3    C        1    D        2    E        0
 H                    3    C        1    D        2    F        0
 H                    2    C        1    D        3    G        0
 H                    2    C        1    D        6    E        0
       Variables:
  A                     3.8852                   
  B                     1.88506                  
  C                     0.95                     
  D                   109.471                    
  E                   180.                       
  F                     0.                       
  G                    90.                       
  H                   155.                       
 
     4 tetrahedral angles replaced.
 Add virtual bond connecting atoms O2         and Cu1        Dist= 7.34D+00.
 The following ModRedundant input section has been read:
 A       2       1       3 F                                                   
 B       1       2 S  25 -0.100                                                
 

 GradGradGradGradGradGradGradGradGradGradGradGradGradGradGradGradGradGrad
 Berny optimization.
 Initialization pass.
                           ----------------------------
                           !    Initial Parameters    !
                           ! (Angstroms and Degrees)  !
 --------------------------                            --------------------------
 ! Name  Definition              Value          Derivative Info.                !
 --------------------------------------------------------------------------------
 ! R1    R(1,2)                  3.8852         Scan                            !
 ! R2    R(1,3)                  1.8851         estimate D2E/DX2                !
 ! R3    R(2,6)                  0.95           estimate D2E/DX2                !
 ! R4    R(2,7)                  0.95           estimate D2E/DX2                !
 ! R5    R(3,4)                  0.95           estimate D2E/DX2                !
 ! R6    R(3,5)                  0.95           estimate D2E/DX2                !
 ! A1    A(2,1,3)              155.0            Frozen                          !
 ! A2    A(1,2,6)              109.4712         estimate D2E/DX2                !
 ! A3    A(1,2,7)              109.4712         estimate D2E/DX2                !
 ! A4    A(6,2,7)              141.0576         estimate D2E/DX2                !
 ! A5    A(1,3,4)              109.4712         estimate D2E/DX2                !
 ! A6    A(1,3,5)              109.4712         estimate D2E/DX2                !
 ! A7    A(4,3,5)              141.0576         estimate D2E/DX2                !
 ! D1    D(3,1,2,6)             90.0            estimate D2E/DX2                !
 ! D2    D(3,1,2,7)            -90.0            estimate D2E/DX2                !
 ! D3    D(2,1,3,4)            180.0            estimate D2E/DX2                !
 ! D4    D(2,1,3,5)              0.0            estimate D2E/DX2                !
 ! D5    D(1,2,6,7)            180.0            estimate D2E/DX2                !
 ! D6    D(1,3,4,5)            180.0            estimate D2E/DX2                !
 --------------------------------------------------------------------------------
 Trust Radius=3.00D-01 FncErr=1.00D-07 GrdErr=1.00D-06
 Number of optimizations in scan=  26
 Number of steps in this run=    100 maximum allowed number of steps=    100.
 GradGradGradGradGradGradGradGradGradGradGradGradGradGradGradGradGradGrad

                          Input orientation:                          
 ---------------------------------------------------------------------
 Center     Atomic      Atomic             Coordinates (Angstroms)
 Number     Number       Type             X           Y           Z
 ---------------------------------------------------------------------
      1         29           0        0.000000    0.000000    0.000000
      2          8           0        0.000000    0.000000    3.885203
      3          8           0        0.796661    0.000000   -1.708445
      4          1           0        0.118739    0.000000   -2.373969
      5          1           0        1.742242    0.000000   -1.616917
      6          1           0        0.000000    0.895669    4.201870
      7          1           0        0.000000   -0.895669    4.201870
 ---------------------------------------------------------------------
                    Distance matrix (angstroms):
                    1          2          3          4          5
     1  Cu   0.000000
     2  O    3.885203   0.000000
     3  O    1.885061   5.650095   0.000000
     4  H    2.376936   6.260298   0.950000   0.000000
     5  H    2.376936   5.771372   0.950000   1.791337   0.000000
     6  H    4.296269   0.950000   6.030648   6.637618   6.139699
     7  H    4.296269   0.950000   6.030648   6.637618   6.139699
                    6          7
     6  H    0.000000
     7  H    1.791337   0.000000
 Stoichiometry    CuH4O2(2+,2)
 Framework group  CS[SG(CuH2O2),X(H2)]
 Deg. of freedom    10
 Full point group                 CS      NOp   2
 Largest Abelian subgroup         CS      NOp   2
 Largest concise Abelian subgroup CS      NOp   2
                         Standard orientation:                         
 ---------------------------------------------------------------------
 Center     Atomic      Atomic             Coordinates (Angstroms)
 Number     Number       Type             X           Y           Z
 ---------------------------------------------------------------------
      1         29           0        0.000000    0.476091    0.000000
      2          8           0       -1.371364   -3.159038    0.000000
      3          8           0        1.348415    1.793373    0.000000
      4          1           0        0.949038    2.655346    0.000000
      5          1           0        2.200826    1.373974    0.000000
      6          1           0       -1.483138   -3.455322    0.895669
      7          1           0       -1.483138   -3.455322   -0.895669
 ---------------------------------------------------------------------
 Rotational constants (GHZ):     52.4912737      1.5738048      1.5430802
 Standard basis: 6-311G(d) (5D, 7F)
 There are    74 symmetry adapted cartesian basis functions of A'  symmetry.
 There are    28 symmetry adapted cartesian basis functions of A"  symmetry.
 There are    67 symmetry adapted basis functions of A'  symmetry.
 There are    27 symmetry adapted basis functions of A"  symmetry.
    94 basis functions,   165 primitive gaussians,   102 cartesian basis functions
    24 alpha electrons       23 beta electrons
       nuclear repulsion energy       144.3384192117 Hartrees.
 NAtoms=    7 NActive=    7 NUniq=    6 SFac= 1.36D+00 NAtFMM=   60 NAOKFM=F Big=F
 Integral buffers will be    131072 words long.
 Raffenetti 2 integral format.
 Two-electron integral symmetry is turned on.
 One-electron integrals computed using PRISM.
 NBasis=    94 RedAO= T EigKep=  1.33D-02  NBF=    67    27
 NBsUse=    94 1.00D-06 EigRej= -1.00D+00 NBFU=    67    27
 ExpMin= 4.08D-02 ExpMax= 3.37D+05 ExpMxC= 1.14D+04 IAcc=2 IRadAn=         4 AccDes= 0.00D+00
 Harris functional with IExCor=  402 and IRadAn=       4 diagonalized for initial guess.
 HarFok:  IExCor=  402 AccDes= 0.00D+00 IRadAn=         4 IDoV= 1 UseB2=F ITyADJ=14
 ICtDFT=  3500011 ScaDFX=  1.000000  1.000000  1.000000  1.000000
 FoFCou: FMM=F IPFlag=           0 FMFlag=      100000 FMFlg1=           0
         NFxFlg=           0 DoJE=T BraDBF=F KetDBF=T FulRan=T
         wScrn=  0.000000 ICntrl=     500 IOpCl=  0 I1Cent=   200000004 NGrid=           0
         NMat0=    1 NMatS0=      1 NMatT0=    0 NMatD0=    1 NMtDS0=    0 NMtDT0=    0
 Petite list used in FoFCou.
 Initial guess orbital symmetries:
 Alpha Orbitals:
       Occupied  (A') (A') (A') (A') (A") (A') (A') (A') (A') (A')
                 (A") (A') (A') (A') (A") (A') (A") (A') (A') (A')
                 (A') (A') (A") (A")
       Virtual   (A') (A') (A') (A') (A") (A') (A') (A') (A') (A")
                 (A") (A') (A') (A') (A') (A") (A') (A') (A") (A')
                 (A') (A") (A') (A") (A') (A') (A') (A') (A') (A")
                 (A") (A") (A") (A') (A') (A') (A') (A") (A') (A')
                 (A') (A') (A") (A') (A") (A') (A") (A') (A") (A')
                 (A') (A') (A") (A') (A") (A') (A") (A') (A') (A")
                 (A') (A') (A') (A") (A') (A') (A') (A') (A') (A')
 Beta  Orbitals:
       Occupied  (A') (A') (A') (A') (A") (A') (A') (A') (A') (A')
                 (A") (A') (A') (A') (A") (A') (A") (A') (A') (A')
                 (A') (A') (A")
       Virtual   (A") (A') (A') (A') (A') (A") (A') (A') (A') (A')
                 (A") (A") (A') (A') (A') (A') (A") (A') (A') (A")
                 (A') (A') (A") (A') (A") (A') (A') (A') (A') (A')
                 (A") (A") (A") (A") (A') (A') (A') (A') (A") (A')
                 (A') (A') (A') (A") (A') (A") (A') (A") (A') (A")
                 (A') (A') (A') (A") (A') (A") (A') (A") (A') (A')
                 (A") (A') (A') (A') (A") (A') (A') (A') (A') (A')
                 (A')
 The electronic state of the initial guess is 2-A".
 Initial guess <Sx>= 0.0000 <Sy>= 0.0000 <Sz>= 0.5000 <S**2>= 0.7500 S= 0.5000
 Keep R1 and R2 ints in memory in symmetry-blocked form, NReq=15545797.
 Requested convergence on RMS density matrix=1.00D-08 within  64 cycles.
 Requested convergence on MAX density matrix=1.00D-06.
 Requested convergence on             energy=1.00D-06.
 No special actions if energy rises.
 EnCoef did   100 forward-backward iterations
 EnCoef did   100 forward-backward iterations
 EnCoef did   100 forward-backward iterations
 EnCoef did   100 forward-backward iterations
 EnCoef did     9 forward-backward iterations
 EnCoef did    49 forward-backward iterations
 EnCoef did   100 forward-backward iterations
 EnCoef did   100 forward-backward iterations
 EnCoef did   100 forward-backward iterations
 EnCoef did   100 forward-backward iterations
 EnCoef did   100 forward-backward iterations
 Rare condition: small coef for last iteration:  0.844D-15
 EnCoef did   100 forward-backward iterations
 EnCoef did   100 forward-backward iterations
 Rare condition: small coef for last iteration:  0.842D-15
 EnCoef did   100 forward-backward iterations
 EnCoef did   100 forward-backward iterations
 Rare condition: small coef for last iteration:  0.281D-14
 EnCoef did   100 forward-backward iterations
 EnCoef did   100 forward-backward iterations
 EnCoef did   100 forward-backward iterations
 EnCoef did   100 forward-backward iterations
 EnCoef did   100 forward-backward iterations
 EnCoef did   100 forward-backward iterations
 EnCoef did   100 forward-backward iterations
 Rare condition: small coef for last iteration:  0.000D+00
 Rare condition: small coef for last iteration:  0.000D+00
 Rare condition: small coef for last iteration:  0.000D+00
 Rare condition: small coef for last iteration:  0.000D+00
 Rare condition: small coef for last iteration:  0.000D+00
 Rare condition: small coef for last iteration:  0.000D+00
 Rare condition: small coef for last iteration:  0.000D+00
 Rare condition: small coef for last iteration:  0.000D+00
 Rare condition: small coef for last iteration:  0.000D+00
 Rare condition: small coef for last iteration:  0.000D+00
 Rare condition: small coef for last iteration:  0.000D+00
 Rare condition: small coef for last iteration:  0.000D+00
 Rare condition: small coef for last iteration:  0.000D+00
 Rare condition: small coef for last iteration:  0.000D+00
 Rare condition: small coef for last iteration:  0.000D+00
 Rare condition: small coef for last iteration:  0.000D+00
 >>>>>>>>>> Convergence criterion not met.
 SCF Done:  E(UB3LYP) =  -1792.39813620     A.U. after   65 cycles
            NFock= 64  Conv=0.18D-05     -V/T= 1.9988
 <Sx>= 0.0000 <Sy>= 0.0000 <Sz>= 0.5000 <S**2>= 0.7516 S= 0.5008
 <L.S>= 0.000000000000E+00
 Annihilation of the first spin contaminant:
 S**2 before annihilation     0.7516,   after     0.7500
 Keep R1 and R2 ints in memory in symmetry-blocked form, NReq=15602405.
 Gradient too large for Newton-Raphson -- use scaled steepest descent instead.
  Beta Gap=    -0.397 HL deriv= 1.82D-17 Rot set to   7.80D-01
     Minimum is close to point  2 DX=  1.10D-02 DF= -7.17D-05 DXR=  3.54D-02 DFR=  1.26D-03 which will be used.
 Gradient too large for Newton-Raphson -- use scaled steepest descent instead.
     Accept linear search using points  2 and  3.
 Gradient too large for Newton-Raphson -- use scaled steepest descent instead.
 Gradient too large for Newton-Raphson -- use scaled steepest descent instead.
 Gradient too large for Newton-Raphson -- use scaled steepest descent instead.
     Accept linear search using points  1 and  2.
 Gradient too large for Newton-Raphson -- use scaled steepest descent instead.
     Accept linear search using points  3 and  4.
 Gradient too large for Newton-Raphson -- use scaled steepest descent instead.
 Gradient too large for Newton-Raphson -- use scaled steepest descent instead.
     Accept linear search using points  3 and  4.
 Gradient too large for Newton-Raphson -- use scaled steepest descent instead.
     Minimum is close to point  3 DX=  6.42D-03 DF= -1.73D-06 DXR=  2.09D-02 DFR=  4.39D-04 which will be used.
 Gradient too large for Newton-Raphson -- use scaled steepest descent instead.
 Gradient too large for Newton-Raphson -- use scaled steepest descent instead.
     Minimum is close to point  3 DX= -1.16D-02 DF= -6.08D-06 DXR=  4.01D-02 DFR=  1.61D-03 which will be used.
 Gradient too large for Newton-Raphson -- use scaled steepest descent instead.
 Gradient too large for Newton-Raphson -- use scaled steepest descent instead.
     Accept linear search using points  1 and  2.
 Gradient too large for Newton-Raphson -- use scaled steepest descent instead.
 Gradient too large for Newton-Raphson -- use scaled steepest descent instead.
     Accept linear search using points  1 and  2.
 Gradient too large for Newton-Raphson -- use scaled steepest descent instead.
 Gradient too large for Newton-Raphson -- use scaled steepest descent instead.
     Accept linear search using points  1 and  2.
 LinEq1:  Iter=  0 NonCon=     1 RMS=2.52D-04 Max=1.26D-02 NDo=     1
 AX will form     1 AO Fock derivatives at one time.
 LinEq1:  Iter=  1 NonCon=     1 RMS=1.71D-03 Max=4.87D-02 NDo=     1
 LinEq1:  Iter=  2 NonCon=     1 RMS=5.86D-04 Max=2.12D-02 NDo=     1
 LinEq1:  Iter=  3 NonCon=     1 RMS=6.64D-04 Max=1.95D-02 NDo=     1
 LinEq1:  Iter=  4 NonCon=     1 RMS=4.80D-04 Max=8.27D-03 NDo=     1
 LinEq1:  Iter=  5 NonCon=     1 RMS=2.34D-04 Max=7.26D-03 NDo=     1
 LinEq1:  Iter=  6 NonCon=     1 RMS=1.34D-04 Max=3.20D-03 NDo=     1
 LinEq1:  Iter=  7 NonCon=     1 RMS=1.47D-04 Max=3.22D-03 NDo=     1
 LinEq1:  Iter=  8 NonCon=     1 RMS=3.97D-05 Max=6.76D-04 NDo=     1
 LinEq1:  Iter=  9 NonCon=     1 RMS=1.11D-05 Max=2.80D-04 NDo=     1
 LinEq1:  Iter= 10 NonCon=     1 RMS=2.60D-06 Max=5.96D-05 NDo=     1
 LinEq1:  Iter= 11 NonCon=     1 RMS=1.13D-06 Max=3.51D-05 NDo=     1
 LinEq1:  Iter= 12 NonCon=     1 RMS=3.82D-07 Max=9.42D-06 NDo=     1
 LinEq1:  Iter= 13 NonCon=     1 RMS=9.28D-08 Max=1.60D-06 NDo=     1
 LinEq1:  Iter= 14 NonCon=     1 RMS=2.75D-08 Max=8.96D-07 NDo=     1
 LinEq1:  Iter= 15 NonCon=     1 RMS=1.14D-08 Max=4.11D-07 NDo=     1
 LinEq1:  Iter= 16 NonCon=     0 RMS=2.41D-09 Max=3.83D-08 NDo=     1
 Linear equations converged to 5.756D-09 5.756D-08 after    16 iterations.
     Accept linear search using points  1 and  2.
     Minimum is close to point  2 DX= -8.63D-03 DF= -2.33D-09 DXR=  8.70D-03 DFR=  7.62D-05 which will be used.
 LinEq1:  Iter=  0 NonCon=     1 RMS=5.17D-05 Max=2.97D-03 NDo=     1
 LinEq1:  Iter=  1 NonCon=     1 RMS=3.69D-05 Max=1.60D-03 NDo=     1
 LinEq1:  Iter=  2 NonCon=     1 RMS=1.42D-05 Max=4.07D-04 NDo=     1
 LinEq1:  Iter=  3 NonCon=     1 RMS=1.95D-05 Max=6.21D-04 NDo=     1
 LinEq1:  Iter=  4 NonCon=     1 RMS=9.83D-06 Max=2.30D-04 NDo=     1
 LinEq1:  Iter=  5 NonCon=     1 RMS=8.69D-06 Max=1.86D-04 NDo=     1
 LinEq1:  Iter=  6 NonCon=     1 RMS=4.69D-06 Max=7.73D-05 NDo=     1
 LinEq1:  Iter=  7 NonCon=     1 RMS=2.22D-06 Max=4.36D-05 NDo=     1
 LinEq1:  Iter=  8 NonCon=     1 RMS=4.91D-07 Max=1.51D-05 NDo=     1
 LinEq1:  Iter=  9 NonCon=     1 RMS=1.89D-07 Max=6.02D-06 NDo=     1
 LinEq1:  Iter= 10 NonCon=     1 RMS=6.01D-08 Max=1.24D-06 NDo=     1
 LinEq1:  Iter= 11 NonCon=     1 RMS=1.90D-08 Max=4.69D-07 NDo=     1
 LinEq1:  Iter= 12 NonCon=     1 RMS=5.89D-09 Max=1.59D-07 NDo=     1
 LinEq1:  Iter= 13 NonCon=     1 RMS=2.42D-09 Max=3.96D-08 NDo=     1
 LinEq1:  Iter= 14 NonCon=     0 RMS=6.68D-10 Max=1.51D-08 NDo=     1
 Linear equations converged to 1.995D-09 1.995D-08 after    14 iterations.
     Minimum is close to point  2 DX=  1.06D-02 DF= -1.36D-12 DXR=  1.05D-02 DFR=  1.18D-04 which will be used.
 LinEq1:  Iter=  0 NonCon=     1 RMS=1.23D-07 Max=7.01D-06 NDo=     1
 LinEq1:  Iter=  1 NonCon=     1 RMS=3.24D-07 Max=1.09D-05 NDo=     1
 LinEq1:  Iter=  2 NonCon=     1 RMS=2.05D-07 Max=4.49D-06 NDo=     1
 LinEq1:  Iter=  3 NonCon=     1 RMS=2.91D-07 Max=1.19D-05 NDo=     1
 LinEq1:  Iter=  4 NonCon=     1 RMS=1.66D-07 Max=3.34D-06 NDo=     1
 LinEq1:  Iter=  5 NonCon=     1 RMS=9.39D-08 Max=2.04D-06 NDo=     1
 LinEq1:  Iter=  6 NonCon=     1 RMS=9.23D-08 Max=2.34D-06 NDo=     1
 LinEq1:  Iter=  7 NonCon=     1 RMS=3.78D-08 Max=7.97D-07 NDo=     1
 LinEq1:  Iter=  8 NonCon=     1 RMS=1.15D-08 Max=2.65D-07 NDo=     1
 LinEq1:  Iter=  9 NonCon=     1 RMS=3.28D-09 Max=7.60D-08 NDo=     1
 LinEq1:  Iter= 10 NonCon=     1 RMS=1.17D-09 Max=3.59D-08 NDo=     1
 LinEq1:  Iter= 11 NonCon=     1 RMS=4.54D-10 Max=1.28D-08 NDo=     1
 LinEq1:  Iter= 12 NonCon=     1 RMS=1.51D-10 Max=2.24D-09 NDo=     1
 LinEq1:  Iter= 13 NonCon=     1 RMS=5.33D-11 Max=1.55D-09 NDo=     1
 LinEq1:  Iter= 14 NonCon=     1 RMS=2.07D-11 Max=6.40D-10 NDo=     1
 LinEq1:  Iter= 15 NonCon=     0 RMS=4.28D-12 Max=7.69D-11 NDo=     1
 Linear equations converged to 1.311D-11 1.311D-10 after    15 iterations.
 Density matrix breaks symmetry, PCut= 1.00D-04
 Density matrix has no symmetry -- integrals replicated.
 Density matrix is not symmetric, so final MOs not symmetrized.
 SCF Done:  E(UB3LYP) =  -1792.49512933     a.u. after   21 cycles
            Convg  =    0.1222D-07                   102 Fock formations.
              S**2 =  0.7524                  -V/T =  2.0006
 <Sx>= 0.0000 <Sy>= 0.0000 <Sz>= 0.5000 <S**2>= 0.7524 S= 0.5012
 <L.S>= 0.000000000000E+00
 Annihilation of the first spin contaminant:
 S**2 before annihilation     0.7524,   after     0.7500

 **********************************************************************

            Population analysis using the SCF density.

 **********************************************************************

 Orbital symmetries:
 Alpha Orbitals:
       Occupied  (A') (A') (A") (A") (A") (A') (A') (A') (?A) (?A)
                 (?A) (A') (A') (A') (A") (A') (A") (A') (A') (?B)
                 (?B) (?B) (?B) (A')
       Virtual   (A') (A') (A') (A') (A") (A') (A') (A') (A') (A")
                 (A') (A") (A') (A') (A') (A") (A') (A') (A") (A')
                 (?C) (?C) (A') (A") (A') (A') (A') (A') (A') (A")
                 (A") (A") (A') (A') (A") (A') (A') (A") (A') (A')
                 (A') (?D) (?D) (?D) (?C) (?C) (A') (A') (A') (A")
                 (A') (A') (A") (A') (?E) (?E) (?E) (A') (A') (A")
                 (A') (A') (A') (A") (A') (A') (A') (A') (A') (A')
 Beta  Orbitals:
       Occupied  (A') (A') (?A) (A') (?A) (A') (A') (A') (A") (A")
                 (A") (A') (A') (A') (A") (A') (?B) (A') (?B) (?B)
                 (?B) (?B) (?B)
       Virtual   (?B) (A') (A') (A') (A') (A") (A') (A') (A') (A')
                 (A") (A') (A") (A') (A') (A') (A") (A') (A') (A")
                 (A') (?A) (?A) (A') (A") (A') (A') (A') (A') (A')
                 (A") (A") (A") (A") (A') (A') (A') (A') (A") (A')
                 (A') (A') (?C) (?C) (?C) (?C) (?C) (?C) (A') (A")
                 (A') (A') (A') (A") (A') (?A) (?A) (A") (A') (A')
                 (A") (A') (A') (A') (A") (A') (A') (A') (A') (A')
                 (A')
 Unable to determine electronic state:  an orbital has unidentified symmetry.
 Alpha  occ. eigenvalues -- -323.44153 -39.23579 -34.46261 -34.46157 -34.44641
 Alpha  occ. eigenvalues --  -19.56974 -19.56411  -4.77158  -3.28017  -3.27798
 Alpha  occ. eigenvalues --   -3.24710  -1.45331  -1.44689  -1.03109  -1.01436
 Alpha  occ. eigenvalues --   -0.86014  -0.79983  -0.77897  -0.76667  -0.74904
 Alpha  occ. eigenvalues --   -0.74857  -0.74767  -0.73940  -0.72388
 Alpha virt. eigenvalues --   -0.49872  -0.31681  -0.30598  -0.23438  -0.20943
 Alpha virt. eigenvalues --   -0.18613  -0.04256  -0.02213   0.04987   0.11992
 Alpha virt. eigenvalues --    0.28871   0.31019   0.33939   0.37120   0.43911
 Alpha virt. eigenvalues --    0.52620   0.68920   0.74284   0.83137   0.86847
 Alpha virt. eigenvalues --    0.99416   0.99470   1.01355   1.01999   1.22103
 Alpha virt. eigenvalues --    1.28392   1.54229   1.56440   1.72880   1.73400
 Alpha virt. eigenvalues --    2.27344   2.28591   2.35278   2.35432   2.37620
 Alpha virt. eigenvalues --    2.53563   2.69979   2.72944   2.73047   3.03230
 Alpha virt. eigenvalues --    3.04470   3.48615   3.48705   3.48898   3.50256
 Alpha virt. eigenvalues --    3.50289   3.51406   3.51835   4.26549   4.29770
 Alpha virt. eigenvalues --    4.34949   4.44596   4.64386   4.67426   6.71135
 Alpha virt. eigenvalues --    6.71185   6.71517   6.78269   6.83839   8.79482
 Alpha virt. eigenvalues --    8.87497   9.10638  31.49756  42.25759  42.31571
 Alpha virt. eigenvalues --   42.46894  49.26205  49.29698 183.56468 978.82021
  Beta  occ. eigenvalues -- -323.44154 -39.22489 -34.45081 -34.44959 -34.44366
  Beta  occ. eigenvalues --  -19.56230 -19.55533  -4.74915  -3.24798  -3.24601
  Beta  occ. eigenvalues --   -3.23975  -1.44919  -1.41015  -1.02990  -1.00433
  Beta  occ. eigenvalues --   -0.85721  -0.76062  -0.75120  -0.73932  -0.73731
  Beta  occ. eigenvalues --   -0.73628  -0.71433  -0.65723
  Beta virt. eigenvalues --   -0.63126  -0.49605  -0.31551  -0.30123  -0.23402
  Beta virt. eigenvalues --   -0.20677  -0.18488  -0.04160  -0.01904   0.05012
  Beta virt. eigenvalues --    0.12140   0.29176   0.31665   0.37895   0.38425
  Beta virt. eigenvalues --    0.44020   0.53329   0.69218   0.76204   0.84407
  Beta virt. eigenvalues --    0.87114   0.99788   0.99923   1.01908   1.04740
  Beta virt. eigenvalues --    1.22451   1.29135   1.54537   1.56557   1.72867
  Beta virt. eigenvalues --    1.73282   2.29137   2.32098   2.38198   2.39704
  Beta virt. eigenvalues --    2.39969   2.54172   2.70072   2.73710   2.74185
  Beta virt. eigenvalues --    3.04390   3.05659   3.50450   3.50615   3.50774
  Beta virt. eigenvalues --    3.50858   3.51406   3.51968   3.52325   4.30514
  Beta virt. eigenvalues --    4.32934   4.36202   4.44785   4.65670   4.67579
  Beta virt. eigenvalues --    6.72053   6.72083   6.75905   6.79181   6.84619
  Beta virt. eigenvalues --    8.81435   8.88004   9.12577  31.51208  42.27291
  Beta virt. eigenvalues --   42.31995  42.48435  49.27660  49.29878 183.57014
  Beta virt. eigenvalues --  978.82128
          Condensed to atoms (all electrons):
               1          2          3          4          5          6
     1  Cu  27.660859   0.005255   0.113561  -0.005664  -0.005624  -0.000356
     2  O    0.005255   8.050105   0.000000  -0.000001  -0.000005   0.249560
     3  O    0.113561   0.000000   8.324614   0.243763   0.244196   0.000000
     4  H   -0.005664  -0.000001   0.243763   0.195332  -0.008799   0.000000
     5  H   -0.005624  -0.000005   0.244196  -0.008799   0.198297   0.000000
     6  H   -0.000356   0.249560   0.000000   0.000000   0.000000   0.211329
     7  H   -0.000356   0.249560   0.000000   0.000000   0.000000  -0.011020
               7
     1  Cu  -0.000356
     2  O    0.249560
     3  O    0.000000
     4  H    0.000000
     5  H    0.000000
     6  H   -0.011020
     7  H    0.211328
          Atomic-Atomic Spin Densities.
               1          2          3          4          5          6
     1  Cu   0.411434  -0.000340  -0.007414   0.000060   0.000051   0.000025
     2  O   -0.000340   0.585903   0.000000   0.000000   0.000000  -0.006671
     3  O   -0.007414   0.000000   0.068297  -0.000500  -0.000492   0.000000
     4  H    0.000060   0.000000  -0.000500  -0.001554   0.000016   0.000000
     5  H    0.000051   0.000000  -0.000492   0.000016  -0.001568   0.000000
     6  H    0.000025  -0.006671   0.000000   0.000000   0.000000  -0.009953
     7  H    0.000024  -0.006670   0.000000   0.000000   0.000000   0.000607
               7
     1  Cu   0.000024
     2  O   -0.006670
     3  O    0.000000
     4  H    0.000000
     5  H    0.000000
     6  H    0.000607
     7  H   -0.009953
 Mulliken charges and spin densities:
               1          2
     1  Cu   1.232327   0.403840
     2  O   -0.554473   0.572222
     3  O   -0.926133   0.059892
     4  H    0.575369  -0.001977
     5  H    0.571935  -0.001992
     6  H    0.550488  -0.015993
     7  H    0.550488  -0.015993
 Sum of Mulliken charges =   2.00000   1.00000
 Mulliken charges and spin densities with hydrogens summed into heavy atoms:
               1          2
     1  Cu   1.232327   0.403840
     2  O    0.546503   0.540237
     3  O    0.221170   0.055923
 Electronic spatial extent (au):  <R**2>=            659.8259
 Charge=              2.0000 electrons
 Dipole moment (field-independent basis, Debye):
    X=             -1.5152    Y=             -3.9685    Z=             -0.0001  Tot=              4.2479
 Quadrupole moment (field-independent basis, Debye-Ang):
   XX=             -5.2849   YY=             29.1815   ZZ=            -16.5715
   XY=             21.2393   XZ=             -0.0003   YZ=             -0.0002
 Traceless Quadrupole moment (field-independent basis, Debye-Ang):
   XX=             -7.7266   YY=             26.7398   ZZ=            -19.0132
   XY=             21.2393   XZ=             -0.0003   YZ=             -0.0002
 Octapole moment (field-independent basis, Debye-Ang**2):
  XXX=              9.7306  YYY=            -89.2281  ZZZ=             -0.0004  XYY=            -46.0534
  XXY=             -9.7395  XXZ=              0.0038  XZZ=             -7.9296  YZZ=            -13.1191
  YYZ=             -0.0037  XYZ=              0.0043
 Hexadecapole moment (field-independent basis, Debye-Ang**3):
 XXXX=            -80.7728 YYYY=             83.9830 ZZZZ=            -11.2351 XXXY=            -57.5264
 XXXZ=             -0.0092 YYYX=            116.0834 YYYZ=              0.0157 ZZZX=             -0.0020
 ZZZY=              0.0005 XXYY=             -2.7418 XXZZ=            -18.7597 YYZZ=            -35.3582
 XXYZ=             -0.0096 YYXZ=             -0.0086 ZZXY=            -19.5767
 N-N= 1.443384192117D+02 E-N=-4.554420142407D+03  KE= 1.791500022448D+03
 Symmetry A'   KE= 1.565841845310D+03
 Symmetry A"   KE= 2.256581771386D+02
                          Isotropic Fermi Contact Couplings
        Atom                 a.u.       MegaHertz       Gauss      10(-4) cm-1
     1  Cu(63)            -0.13596    -161.25901     -57.54122     -53.79022
     2  O(17)              0.06320     -38.31283     -13.67097     -12.77978
     3  O(17)              0.01113      -6.74669      -2.40739      -2.25045
     4  H(1)              -0.00109      -4.88799      -1.74416      -1.63046
     5  H(1)              -0.00109      -4.89118      -1.74530      -1.63152
     6  H(1)              -0.00864     -38.63535     -13.78605     -12.88737
     7  H(1)              -0.00864     -38.63539     -13.78607     -12.88738
 --------------------------------------------------------
       Center         ----  Spin Dipole Couplings  ----
                      3XX-RR        3YY-RR        3ZZ-RR
 --------------------------------------------------------
     1   Atom       -0.423572     -0.501284      0.924857
     2   Atom        1.823792     -0.705052     -1.118740
     3   Atom       -0.136369     -0.136355      0.272725
     4   Atom       -0.007311      0.015797     -0.008485
     5   Atom        0.015161     -0.006582     -0.008580
     6   Atom       -0.031658     -0.050051      0.081708
     7   Atom       -0.031694     -0.050015      0.081709
 --------------------------------------------------------
                        XY            XZ            YZ
 --------------------------------------------------------
     1   Atom        1.426185      0.013970     -0.010896
     2   Atom       -1.109332      0.002776     -0.001045
     3   Atom        0.015368      0.002146      0.001378
     4   Atom       -0.003369      0.000021      0.000026
     5   Atom       -0.003624     -0.000013      0.000039
     6   Atom       -0.008037     -0.018760     -0.049506
     7   Atom       -0.008078      0.018552      0.049585
 --------------------------------------------------------


 ---------------------------------------------------------------------------------
              Anisotropic Spin Dipole Couplings in Principal Axis System
 ---------------------------------------------------------------------------------

       Atom             a.u.   MegaHertz   Gauss  10(-4) cm-1        Axes

              Baa    -1.8893  -267.484   -95.445   -89.223 -0.6974  0.7167  0.0062
     1 Cu(63) Bbb     0.9248   130.937    46.722    43.676 -0.0394 -0.0470  0.9981
              Bcc     0.9644   136.546    48.723    45.547  0.7156  0.6958  0.0610
 
              Baa    -1.1227    81.238    28.988    27.098  0.3523  0.9359  0.0000
     2 O(17)  Bbb    -1.1187    80.951    28.885    27.002 -0.0008  0.0003  1.0000
              Bcc     2.2414  -162.190   -57.873   -54.101  0.9359 -0.3523  0.0009
 
              Baa    -0.1517    10.979     3.918     3.662  0.7073 -0.7069 -0.0013
     3 O(17)  Bbb    -0.1210     8.756     3.124     2.921  0.7069  0.7073 -0.0063
              Bcc     0.2727   -19.735    -7.042    -6.583  0.0054  0.0036  1.0000
 
              Baa    -0.0085    -4.528    -1.616    -1.510 -0.0345 -0.0059  0.9994
     4 H(1)   Bbb    -0.0078    -4.157    -1.483    -1.387  0.9894  0.1413  0.0349
              Bcc     0.0163     8.685     3.099     2.897 -0.1414  0.9900  0.0009
 
              Baa    -0.0086    -4.578    -1.634    -1.527 -0.0033 -0.0253  0.9997
     5 H(1)   Bbb    -0.0072    -3.825    -1.365    -1.276  0.1602  0.9868  0.0255
              Bcc     0.0157     8.403     2.998     2.803  0.9871 -0.1602 -0.0008
 
              Baa    -0.0714   -38.083   -13.589   -12.703  0.3333  0.8843  0.3268
     6 H(1)   Bbb    -0.0286   -15.281    -5.453    -5.097  0.9356 -0.3529  0.0007
              Bcc     0.1000    53.364    19.042    17.800 -0.1160 -0.3056  0.9451
 
              Baa    -0.0714   -38.083   -13.589   -12.703  0.3329  0.8845 -0.3268
     7 H(1)   Bbb    -0.0286   -15.281    -5.453    -5.097  0.9360 -0.3519  0.0008
              Bcc     0.1000    53.365    19.042    17.800  0.1143  0.3062  0.9451
 

 ---------------------------------------------------------------------------------

 Density matrix is not symmetric, so symmetry will not be used here.
 Density matrix is not symmetric, so symmetry will not be used here.
 Calling FoFJK, ICntrl=      2127 FMM=F ISym2X=0 I1Cent= 0 IOpClX= 1 NMat=1 NMatS=1 NMatT=0.
 ***** Axes restored to original set *****
 -------------------------------------------------------------------
 Center     Atomic                   Forces (Hartrees/Bohr)
 Number     Number              X              Y              Z
 -------------------------------------------------------------------
      1       29          -0.004310109    0.000025699    0.004525839
      2        8          -0.000032429   -0.000005672   -0.073204533
      3        8          -0.033676949    0.000003504    0.074438069
      4        1           0.019600443    0.000009257   -0.041603993
      5        1           0.018511043   -0.000032567   -0.042422200
      6        1          -0.000075254    0.008004864    0.039133574
      7        1          -0.000016746   -0.008005085    0.039133244
 -------------------------------------------------------------------
 Cartesian Forces:  Max     0.074438069 RMS     0.030489275

 GradGradGradGradGradGradGradGradGradGradGradGradGradGradGradGradGradGrad
 Berny optimization.
 FormGI is forming the generalized inverse of G from B-inverse, IUseBI=4.
 Internal  Forces:  Max     0.052319722 RMS     0.020577758
 Search for a local minimum.
 Step number   1 out of a maximum of  100 on scan point     1 out of    26
 All quantities printed in internal units (Hartrees-Bohrs-Radians)
 Mixed Optimization -- RFO/linear search
 Second derivative matrix not updated -- first step.
 The second derivative matrix:
                          R1        R2        R3        R4        R5
           R1           0.00858
           R2           0.00000   0.19001
           R3           0.00000   0.00000   0.57681
           R4           0.00000   0.00000   0.00000   0.57681
           R5           0.00000   0.00000   0.00000   0.00000   0.57681
           R6           0.00000   0.00000   0.00000   0.00000   0.00000
           A1           0.00000   0.00000   0.00000   0.00000   0.00000
           A2           0.00000   0.00000   0.00000   0.00000   0.00000
           A3           0.00000   0.00000   0.00000   0.00000   0.00000
           A4           0.00000   0.00000   0.00000   0.00000   0.00000
           A5           0.00000   0.00000   0.00000   0.00000   0.00000
           A6           0.00000   0.00000   0.00000   0.00000   0.00000
           A7           0.00000   0.00000   0.00000   0.00000   0.00000
           D1           0.00000   0.00000   0.00000   0.00000   0.00000
           D2           0.00000   0.00000   0.00000   0.00000   0.00000
           D3           0.00000   0.00000   0.00000   0.00000   0.00000
           D4           0.00000   0.00000   0.00000   0.00000   0.00000
           D5           0.00000   0.00000   0.00000   0.00000   0.00000
           D6           0.00000   0.00000   0.00000   0.00000   0.00000
                          R6        A1        A2        A3        A4
           R6           0.57681
           A1           0.00000   0.25000
           A2           0.00000   0.00000   0.16000
           A3           0.00000   0.00000   0.00000   0.16000
           A4           0.00000   0.00000   0.00000   0.00000   0.16000
           A5           0.00000   0.00000   0.00000   0.00000   0.00000
           A6           0.00000   0.00000   0.00000   0.00000   0.00000
           A7           0.00000   0.00000   0.00000   0.00000   0.00000
           D1           0.00000   0.00000   0.00000   0.00000   0.00000
           D2           0.00000   0.00000   0.00000   0.00000   0.00000
           D3           0.00000   0.00000   0.00000   0.00000   0.00000
           D4           0.00000   0.00000   0.00000   0.00000   0.00000
           D5           0.00000   0.00000   0.00000   0.00000   0.00000
           D6           0.00000   0.00000   0.00000   0.00000   0.00000
                          A5        A6        A7        D1        D2
           A5           0.16000
           A6           0.00000   0.16000
           A7           0.00000   0.00000   0.16000
           D1           0.00000   0.00000   0.00000   0.00230
           D2           0.00000   0.00000   0.00000   0.00000   0.00230
           D3           0.00000   0.00000   0.00000   0.00000   0.00000
           D4           0.00000   0.00000   0.00000   0.00000   0.00000
           D5           0.00000   0.00000   0.00000   0.00000   0.00000
           D6           0.00000   0.00000   0.00000   0.00000   0.00000
                          D3        D4        D5        D6
           D3           0.03612
           D4           0.00000   0.03612
           D5           0.00000   0.00000   0.01690
           D6           0.00000   0.00000   0.00000   0.01690
 ITU=  0
     Eigenvalues ---    0.00230   0.01424   0.02039   0.03612   0.16000
     Eigenvalues ---    0.16000   0.16000   0.16000   0.19001   0.57681
     Eigenvalues ---    0.57681   0.57681   0.576811000.000001000.00000
     Eigenvalues --- 1000.000001000.000001000.000001000.00000
 RFO step:  Lambda=-3.63244856D-02 EMin= 2.30000000D-03
 Linear search not attempted -- first point.
 Maximum step size (   0.300) exceeded in Quadratic search.
    -- Step size scaled by   0.712
 Iteration  1 RMS(Cart)=  0.07720416 RMS(Int)=  0.00318171
 Iteration  2 RMS(Cart)=  0.00318059 RMS(Int)=  0.00001401
 Iteration  3 RMS(Cart)=  0.00000342 RMS(Int)=  0.00001360
 Iteration  4 RMS(Cart)=  0.00000000 RMS(Int)=  0.00001360
 Iteration  1 RMS(Cart)=  0.00000000 RMS(Int)=  0.00000000
 Variable       Old X    -DE/DX   Delta X   Delta X   Delta X     New X
                                 (Linear)    (Quad)   (Total)
    R1        7.34197   0.00506   0.00000   0.00000   0.00000   7.34197
    R2        3.56225   0.01057   0.00000   0.03325   0.03325   3.59550
    R3        1.79524   0.02059   0.00000   0.02392   0.02392   1.81916
    R4        1.79524   0.02059   0.00000   0.02392   0.02392   1.81916
    R5        1.79524   0.01515   0.00000   0.01760   0.01760   1.81284
    R6        1.79524   0.01434   0.00000   0.01666   0.01666   1.81190
    A1        2.70526   0.00111   0.00000   0.00000   0.00000   2.70526
    A2        1.91063   0.02048   0.00000   0.07430   0.07430   1.98493
    A3        1.91063   0.02048   0.00000   0.07430   0.07430   1.98493
    A4        2.46192  -0.04096   0.00000  -0.14860  -0.14860   2.31332
    A5        1.91063   0.02564   0.00000   0.09300   0.09300   2.00364
    A6        1.91063   0.02668   0.00000   0.09679   0.09679   2.00743
    A7        2.46192  -0.05232   0.00000  -0.18980  -0.18980   2.27212
    D1        1.57080   0.00007   0.00000   0.00114   0.00118   1.57197
    D2       -1.57080   0.00003   0.00000   0.00069   0.00065  -1.57014
    D3        3.14159   0.00003   0.00000   0.00030   0.00029  -3.14130
    D4        0.00000   0.00004   0.00000   0.00039   0.00040   0.00040
    D5        3.14159  -0.00005   0.00000  -0.00068  -0.00065   3.14094
    D6        3.14159   0.00001   0.00000   0.00013   0.00013  -3.14147
         Item               Value     Threshold  Converged?
 Maximum Force            0.052320     0.000450     NO 
 RMS     Force            0.021718     0.000300     NO 
 Maximum Displacement     0.190688     0.001800     NO 
 RMS     Displacement     0.077538     0.001200     NO 
 Predicted change in Energy=-1.829241D-02
 GradGradGradGradGradGradGradGradGradGradGradGradGradGradGradGradGradGrad

                          Input orientation:                          
 ---------------------------------------------------------------------
 Center     Atomic      Atomic             Coordinates (Angstroms)
 Number     Number       Type             X           Y           Z
 ---------------------------------------------------------------------
      1         29           0       -0.015102    0.000151    0.010068
      2          8           0       -0.008011    0.000018    3.895265
      3          8           0        0.785848   -0.000006   -1.715791
      4          1           0        0.165313    0.000441   -2.447380
      5          1           0        1.744661   -0.000612   -1.717825
      6          1           0       -0.008104    0.881282    4.282669
      7          1           0       -0.006964   -0.881274    4.282604
 ---------------------------------------------------------------------
                    Distance matrix (angstroms):
                    1          2          3          4          5
     1  Cu   0.000000
     2  O    3.885203   0.000000
     3  O    1.902658   5.666935   0.000000
     4  H    2.464062   6.345012   0.959315   0.000000
     5  H    2.466249   5.880360   0.958816   1.739710   0.000000
     6  H    4.362517   0.962657   6.114617   6.789662   6.313149
     7  H    4.362515   0.962657   6.114403   6.789682   6.312599
                    6          7
     6  H    0.000000
     7  H    1.762556   0.000000
 Stoichiometry    CuH4O2(2+,2)
 Framework group  C1[X(CuH4O2)]
 Deg. of freedom    15
 Full point group                 C1      NOp   1
 Omega: Change in point group or standard orientation.

 Old FWG=CS   [SG(Cu1H2O2),X(H2)]
 New FWG=C01  [X(Cu1H4O2)]
 Largest Abelian subgroup         C1      NOp   1
 Largest concise Abelian subgroup C1      NOp   1
                         Standard orientation:                         
 ---------------------------------------------------------------------
 Center     Atomic      Atomic             Coordinates (Angstroms)
 Number     Number       Type             X           Y           Z
 ---------------------------------------------------------------------
      1         29           0        0.421727    0.215898   -0.000121
      2          8           0       -3.442550   -0.186805    0.000105
      3          8           0        2.220178   -0.405135    0.000237
      4          1           0        2.884772    0.286675    0.000097
      5          1           0        2.319843   -1.358757    0.000435
      6          1           0       -3.827945   -0.225420    0.881404
      7          1           0       -3.827773   -0.228034   -0.881151
 ---------------------------------------------------------------------
 Rotational constants (GHZ):     52.3203370      1.5583717      1.5276195
 Standard basis: 6-311G(d) (5D, 7F)
 There are   102 symmetry adapted cartesian basis functions of A   symmetry.
 There are    94 symmetry adapted basis functions of A   symmetry.
    94 basis functions,   165 primitive gaussians,   102 cartesian basis functions
    24 alpha electrons       23 beta electrons
       nuclear repulsion energy       142.9096663178 Hartrees.
 NAtoms=    7 NActive=    7 NUniq=    7 SFac= 1.00D+00 NAtFMM=   60 NAOKFM=F Big=F
 Integral buffers will be    131072 words long.
 Raffenetti 2 integral format.
 Two-electron integral symmetry is turned on.
 One-electron integrals computed using PRISM.
 NBasis=    94 RedAO= T EigKep=  9.37D-03  NBF=    94
 NBsUse=    94 1.00D-06 EigRej= -1.00D+00 NBFU=    94
 Initial guess from the checkpoint file:  "pescuh2o2.chk"
 B after Tr=     0.000000    0.000000    0.000000
         Rot=    0.850770    0.000300    0.000187    0.525539 Ang=  63.41 deg.
 Initial guess <Sx>= 0.0000 <Sy>= 0.0000 <Sz>= 0.5000 <S**2>= 0.7524 S= 0.5012
 ExpMin= 4.08D-02 ExpMax= 3.37D+05 ExpMxC= 1.14D+04 IAcc=2 IRadAn=         4 AccDes= 0.00D+00
 Harris functional with IExCor=  402 and IRadAn=       4 diagonalized for initial guess.
 HarFok:  IExCor=  402 AccDes= 0.00D+00 IRadAn=         4 IDoV= 1 UseB2=F ITyADJ=14
 ICtDFT=  3500011 ScaDFX=  1.000000  1.000000  1.000000  1.000000
 FoFCou: FMM=F IPFlag=           0 FMFlag=      100000 FMFlg1=           0
         NFxFlg=           0 DoJE=T BraDBF=F KetDBF=T FulRan=T
         wScrn=  0.000000 ICntrl=     500 IOpCl=  0 I1Cent=   200000004 NGrid=           0
         NMat0=    1 NMatS0=      1 NMatT0=    0 NMatD0=    1 NMtDS0=    0 NMtDT0=    0
 Petite list used in FoFCou.
 Keep R1 and R2 ints in memory in canonical form, NReq=21960832.
 Requested convergence on RMS density matrix=1.00D-08 within  64 cycles.
 Requested convergence on MAX density matrix=1.00D-06.
 Requested convergence on             energy=1.00D-06.
 No special actions if energy rises.
 EnCoef did     4 forward-backward iterations
 SCF Done:  E(UB3LYP) =  -1792.51802167     A.U. after   19 cycles
            NFock= 19  Conv=0.73D-08     -V/T= 2.0006
 <Sx>= 0.0000 <Sy>= 0.0000 <Sz>= 0.5000 <S**2>= 0.7523 S= 0.5012
 <L.S>= 0.000000000000E+00
 Annihilation of the first spin contaminant:
 S**2 before annihilation     0.7523,   after     0.7500
 QCSCF skips out because SCF is already converged.
 Calling FoFJK, ICntrl=      2127 FMM=F ISym2X=0 I1Cent= 0 IOpClX= 1 NMat=1 NMatS=1 NMatT=0.
 ***** Axes restored to original set *****
 -------------------------------------------------------------------
 Center     Atomic                   Forces (Hartrees/Bohr)
 Number     Number              X              Y              Z
 -------------------------------------------------------------------
      1       29          -0.000988848    0.000022798   -0.002472134
      2        8          -0.000110345   -0.000003525   -0.057935947
      3        8          -0.025384165    0.000021848    0.055837684
      4        1           0.020038403   -0.000002396   -0.025691324
      5        1           0.006440860   -0.000036231   -0.032311468
      6        1          -0.000025231   -0.003555138    0.031286705
      7        1           0.000029328    0.003552643    0.031286482
 -------------------------------------------------------------------
 Cartesian Forces:  Max     0.057935947 RMS     0.023151614

 GradGradGradGradGradGradGradGradGradGradGradGradGradGradGradGradGradGrad
 Berny optimization.
 Using GEDIIS/GDIIS optimizer.
 FormGI is forming the generalized inverse of G from B-inverse, IUseBI=4.
 Internal  Forces:  Max     0.038779764 RMS     0.015457522
 Search for a local minimum.
 Step number   2 out of a maximum of  100 on scan point     1 out of    26
 All quantities printed in internal units (Hartrees-Bohrs-Radians)
 Mixed Optimization -- RFO/linear search
 Update second derivatives using D2CorX and points    1    2
 DE= -2.29D-02 DEPred=-1.83D-02 R= 1.25D+00
 TightC=F SS=  1.41D+00  RLast= 3.00D-01 DXNew= 5.0454D-01 9.0001D-01
 Trust test= 1.25D+00 RLast= 3.00D-01 DXMaxT set to 5.05D-01
 The second derivative matrix:
                          R1        R2        R3        R4        R5
           R1           0.00860
           R2           0.00057   0.19855
           R3           0.00079   0.00968   0.58555
           R4           0.00079   0.00968   0.00874   0.58555
           R5           0.00060   0.00744   0.00687   0.00687   0.58220
           R6           0.00055   0.00675   0.00610   0.00610   0.00480
           A1           0.00004   0.00074   0.00103   0.00103   0.00078
           A2           0.00016  -0.00188  -0.00657  -0.00657  -0.00475
           A3           0.00016  -0.00188  -0.00657  -0.00657  -0.00475
           A4          -0.00032   0.00376   0.01314   0.01314   0.00950
           A5           0.00046   0.00286  -0.00104  -0.00104  -0.00051
           A6           0.00049   0.00305  -0.00098  -0.00098  -0.00045
           A7          -0.00095  -0.00590   0.00202   0.00202   0.00096
           D1           0.00000  -0.00001  -0.00001  -0.00001  -0.00001
           D2           0.00000   0.00001   0.00001   0.00001   0.00001
           D3           0.00000   0.00000   0.00000   0.00000   0.00000
           D4           0.00000  -0.00001  -0.00002  -0.00002  -0.00002
           D5           0.00000  -0.00003  -0.00004  -0.00004  -0.00003
           D6           0.00000   0.00000  -0.00001  -0.00001  -0.00001
                          R6        A1        A2        A3        A4
           R6           0.58107
           A1           0.00072   0.25005
           A2          -0.00458   0.00020   0.15152
           A3          -0.00458   0.00020  -0.00848   0.15152
           A4           0.00915  -0.00041   0.01695   0.01695   0.12609
           A5          -0.00072   0.00060  -0.00918  -0.00918   0.01835
           A6          -0.00068   0.00063  -0.00953  -0.00953   0.01906
           A7           0.00139  -0.00124   0.01871   0.01871  -0.03742
           D1          -0.00001   0.00000   0.00000   0.00000   0.00001
           D2           0.00000   0.00000   0.00000   0.00000   0.00000
           D3           0.00000   0.00000  -0.00001  -0.00001   0.00001
           D4          -0.00002   0.00000  -0.00001  -0.00001   0.00003
           D5          -0.00003   0.00000   0.00000   0.00000   0.00000
           D6          -0.00001   0.00000   0.00000   0.00000   0.00001
                          A5        A6        A7        D1        D2
           A5           0.15273
           A6          -0.00750   0.15225
           A7           0.01477   0.01525   0.12998
           D1          -0.00001  -0.00001   0.00001   0.00230
           D2           0.00000   0.00000  -0.00001   0.00000   0.00230
           D3          -0.00001  -0.00001   0.00001   0.00000   0.00000
           D4          -0.00002  -0.00002   0.00004   0.00000   0.00000
           D5          -0.00002  -0.00002   0.00004   0.00000   0.00000
           D6          -0.00001  -0.00001   0.00001   0.00000   0.00000
                          D3        D4        D5        D6
           D3           0.03612
           D4           0.00000   0.03612
           D5           0.00000   0.00000   0.01690
           D6           0.00000   0.00000   0.00000   0.01690
 ITU=  1  0
 Use linear search instead of GDIIS.
 Linear search step of   0.600 exceeds DXMaxT=   0.505 but not scaled.
 Quartic linear search produced a step of  2.00000.
 Iteration  1 RMS(Cart)=  0.11816883 RMS(Int)=  0.04119122
 Iteration  2 RMS(Cart)=  0.04329829 RMS(Int)=  0.00128920
 Iteration  3 RMS(Cart)=  0.00124722 RMS(Int)=  0.00006796
 Iteration  4 RMS(Cart)=  0.00000029 RMS(Int)=  0.00006796
 Iteration  1 RMS(Cart)=  0.00000000 RMS(Int)=  0.00000000
 Variable       Old X    -DE/DX   Delta X   Delta X   Delta X     New X
                                 (Linear)    (Quad)   (Total)
    R1        7.34197   0.00464   0.00000   0.00000   0.00000   7.34197
    R2        3.59550   0.00242   0.06651   0.00000   0.06651   3.66201
    R3        1.81916   0.00934   0.04784   0.00000   0.04784   1.86699
    R4        1.81916   0.00934   0.04784   0.00000   0.04784   1.86699
    R5        1.81284   0.00664   0.03521   0.00000   0.03521   1.84805
    R6        1.81190   0.00650   0.03332   0.00000   0.03332   1.84522
    A1        2.70526   0.00056   0.00000   0.00000   0.00000   2.70526
    A2        1.98493   0.01824   0.14860   0.00000   0.14860   2.13353
    A3        1.98493   0.01824   0.14859   0.00000   0.14859   2.13352
    A4        2.31332  -0.03647  -0.29720   0.00000  -0.29720   2.01613
    A5        2.00364   0.01903   0.18601   0.00000   0.18601   2.18964
    A6        2.00743   0.01975   0.19358   0.00000   0.19358   2.20101
    A7        2.27212  -0.03878  -0.37959   0.00000  -0.37959   1.89253
    D1        1.57197   0.00007   0.00235   0.00000   0.00252   1.57449
    D2       -1.57014   0.00003   0.00131   0.00000   0.00115  -1.56900
    D3       -3.14130   0.00003   0.00059   0.00000   0.00055  -3.14075
    D4        0.00040   0.00004   0.00080   0.00000   0.00084   0.00124
    D5        3.14094  -0.00002  -0.00130   0.00000  -0.00112   3.13982
    D6       -3.14147   0.00001   0.00025   0.00000   0.00021  -3.14126
         Item               Value     Threshold  Converged?
 Maximum Force            0.038780     0.000450     NO 
 RMS     Force            0.016302     0.000300     NO 
 Maximum Displacement     0.390501     0.001800     NO 
 RMS     Displacement     0.156963     0.001200     NO 
 Predicted change in Energy=-2.795404D-02
 GradGradGradGradGradGradGradGradGradGradGradGradGradGradGradGradGradGrad

                          Input orientation:                          
 ---------------------------------------------------------------------
 Center     Atomic      Atomic             Coordinates (Angstroms)
 Number     Number       Type             X           Y           Z
 ---------------------------------------------------------------------
      1         29           0       -0.043726    0.000484    0.028942
      2          8           0       -0.024019    0.000062    3.914095
      3          8           0        0.766327    0.000010   -1.731481
      4          1           0        0.279822    0.001166   -2.579825
      5          1           0        1.723512   -0.001724   -1.924469
      6          1           0       -0.023752    0.835625    4.441277
      7          1           0       -0.020521   -0.835623    4.441072
 ---------------------------------------------------------------------
                    Distance matrix (angstroms):
                    1          2          3          4          5
     1  Cu   0.000000
     2  O    3.885203   0.000000
     3  O    1.937853   5.700629   0.000000
     4  H    2.628755   6.501025   0.977945   0.000000
     5  H    2.634189   6.094481   0.976448   1.585478   0.000000
     6  H    4.490719   0.987970   6.278966   7.077030   6.654082
     7  H    4.490713   0.987971   6.278361   7.076964   6.652605
                    6          7
     6  H    0.000000
     7  H    1.671251   0.000000
 Stoichiometry    CuH4O2(2+,2)
 Framework group  C1[X(CuH4O2)]
 Deg. of freedom    15
 Full point group                 C1      NOp   1
 Largest Abelian subgroup         C1      NOp   1
 Largest concise Abelian subgroup C1      NOp   1
                         Standard orientation:                         
 ---------------------------------------------------------------------
 Center     Atomic      Atomic             Coordinates (Angstroms)
 Number     Number       Type             X           Y           Z
 ---------------------------------------------------------------------
      1         29           0        0.413164    0.222701   -0.000317
      2          8           0       -3.449353   -0.196537    0.000278
      3          8           0        2.247573   -0.401973    0.000604
      4          1           0        3.041375    0.169215    0.000444
      5          1           0        2.537996   -1.334231    0.000990
      6          1           0       -3.973698   -0.249124    0.835971
      7          1           0       -3.973188   -0.256127   -0.835265
 ---------------------------------------------------------------------
 Rotational constants (GHZ):     52.6372080      1.5281875      1.4974587
 Standard basis: 6-311G(d) (5D, 7F)
 There are   102 symmetry adapted cartesian basis functions of A   symmetry.
 There are    94 symmetry adapted basis functions of A   symmetry.
    94 basis functions,   165 primitive gaussians,   102 cartesian basis functions
    24 alpha electrons       23 beta electrons
       nuclear repulsion energy       140.2791400849 Hartrees.
 NAtoms=    7 NActive=    7 NUniq=    7 SFac= 1.00D+00 NAtFMM=   60 NAOKFM=F Big=F
 Integral buffers will be    131072 words long.
 Raffenetti 2 integral format.
 Two-electron integral symmetry is turned on.
 One-electron integrals computed using PRISM.
 NBasis=    94 RedAO= T EigKep=  9.37D-03  NBF=    94
 NBsUse=    94 1.00D-06 EigRej= -1.00D+00 NBFU=    94
 Initial guess from the checkpoint file:  "pescuh2o2.chk"
 B after Tr=     0.000000    0.000000    0.000000
         Rot=    0.999998    0.000574    0.000000   -0.001688 Ang=   0.20 deg.
 Initial guess <Sx>= 0.0000 <Sy>= 0.0000 <Sz>= 0.5000 <S**2>= 0.7524 S= 0.5012
 ExpMin= 4.08D-02 ExpMax= 3.37D+05 ExpMxC= 1.14D+04 IAcc=2 IRadAn=         4 AccDes= 0.00D+00
 Harris functional with IExCor=  402 and IRadAn=       4 diagonalized for initial guess.
 HarFok:  IExCor=  402 AccDes= 0.00D+00 IRadAn=         4 IDoV= 1 UseB2=F ITyADJ=14
 ICtDFT=  3500011 ScaDFX=  1.000000  1.000000  1.000000  1.000000
 FoFCou: FMM=F IPFlag=           0 FMFlag=      100000 FMFlg1=           0
         NFxFlg=           0 DoJE=T BraDBF=F KetDBF=T FulRan=T
         wScrn=  0.000000 ICntrl=     500 IOpCl=  0 I1Cent=   200000004 NGrid=           0
         NMat0=    1 NMatS0=      1 NMatT0=    0 NMatD0=    1 NMtDS0=    0 NMtDT0=    0
 Petite list used in FoFCou.
 Keep R1 and R2 ints in memory in canonical form, NReq=21960508.
 Requested convergence on RMS density matrix=1.00D-08 within  64 cycles.
 Requested convergence on MAX density matrix=1.00D-06.
 Requested convergence on             energy=1.00D-06.
 No special actions if energy rises.
 SCF Done:  E(UB3LYP) =  -1792.54181802     A.U. after   25 cycles
            NFock= 25  Conv=0.32D-08     -V/T= 2.0007
 <Sx>= 0.0000 <Sy>= 0.0000 <Sz>= 0.5000 <S**2>= 0.7523 S= 0.5012
 <L.S>= 0.000000000000E+00
 Annihilation of the first spin contaminant:
 S**2 before annihilation     0.7523,   after     0.7500
 QCSCF skips out because SCF is already converged.
 Calling FoFJK, ICntrl=      2127 FMM=F ISym2X=0 I1Cent= 0 IOpClX= 1 NMat=1 NMatS=1 NMatT=0.
 ***** Axes restored to original set *****
 -------------------------------------------------------------------
 Center     Atomic                   Forces (Hartrees/Bohr)
 Number     Number              X              Y              Z
 -------------------------------------------------------------------
      1       29           0.003714127    0.000011427   -0.011924828
      2        8          -0.000092307   -0.000006035   -0.008106906
      3        8          -0.001746632    0.000037623    0.001943699
      4        1           0.003197125   -0.000006547    0.005178598
      5        1          -0.005087094   -0.000036277    0.000682039
      6        1           0.000004398   -0.014533234    0.006112603
      7        1           0.000010383    0.014533044    0.006114796
 -------------------------------------------------------------------
 Cartesian Forces:  Max     0.014533234 RMS     0.006130022

 GradGradGradGradGradGradGradGradGradGradGradGradGradGradGradGradGradGrad
 Berny optimization.
 Using GEDIIS/GDIIS optimizer.
 FormGI is forming the generalized inverse of G from B-inverse, IUseBI=4.
 Internal  Forces:  Max     0.016087699 RMS     0.006096912
 Search for a local minimum.
 Step number   3 out of a maximum of  100 on scan point     1 out of    26
 All quantities printed in internal units (Hartrees-Bohrs-Radians)
 Mixed Optimization -- RFO/linear search
 Update second derivatives using D2CorX and points    2    3
 The second derivative matrix:
                          R1        R2        R3        R4        R5
           R1           0.00858
           R2           0.00017   0.19092
           R3           0.00028   0.00015   0.57408
           R4           0.00028   0.00015  -0.00273   0.57408
           R5           0.00019  -0.00014  -0.00244  -0.00243   0.57472
           R6           0.00018  -0.00027  -0.00252  -0.00252  -0.00213
           A1           0.00000   0.00001   0.00002   0.00002   0.00001
           A2           0.00015  -0.00168  -0.00537  -0.00537  -0.00419
           A3           0.00015  -0.00168  -0.00537  -0.00537  -0.00419
           A4          -0.00031   0.00336   0.01073   0.01073   0.00837
           A5           0.00029  -0.00009  -0.00337  -0.00337  -0.00292
           A6           0.00029  -0.00020  -0.00369  -0.00369  -0.00317
           A7          -0.00058   0.00030   0.00706   0.00706   0.00609
           D1           0.00000   0.00000   0.00000   0.00000   0.00000
           D2           0.00000   0.00000   0.00000   0.00000   0.00000
           D3           0.00000   0.00000  -0.00001  -0.00001   0.00000
           D4           0.00000  -0.00001  -0.00002  -0.00002  -0.00001
           D5           0.00000   0.00000   0.00000   0.00000   0.00000
           D6           0.00000   0.00000  -0.00001  -0.00001   0.00000
                          R6        A1        A2        A3        A4
           R6           0.57466
           A1           0.00001   0.25000
           A2          -0.00408   0.00001   0.15370
           A3          -0.00408   0.00001  -0.00630   0.15370
           A4           0.00817  -0.00002   0.01259   0.01259   0.13481
           A5          -0.00299   0.00002  -0.00603  -0.00603   0.01205
           A6          -0.00323   0.00002  -0.00637  -0.00637   0.01274
           A7           0.00623  -0.00004   0.01240   0.01240  -0.02480
           D1           0.00000   0.00000   0.00000   0.00000   0.00000
           D2           0.00000   0.00000   0.00000   0.00000   0.00000
           D3           0.00000   0.00000  -0.00001  -0.00001   0.00001
           D4          -0.00001   0.00000  -0.00001  -0.00001   0.00003
           D5           0.00000   0.00000   0.00000   0.00000  -0.00001
           D6           0.00000   0.00000   0.00000   0.00000   0.00001
                          A5        A6        A7        D1        D2
           A5           0.15592
           A6          -0.00443   0.15520
           A7           0.00852   0.00924   0.14225
           D1           0.00000   0.00000   0.00000   0.00230
           D2           0.00000   0.00000   0.00001   0.00000   0.00230
           D3          -0.00001  -0.00001   0.00001   0.00000   0.00000
           D4          -0.00002  -0.00002   0.00004   0.00000   0.00000
           D5           0.00000   0.00000   0.00000   0.00000   0.00000
           D6          -0.00001  -0.00001   0.00001   0.00000   0.00000
                          D3        D4        D5        D6
           D3           0.03612
           D4           0.00000   0.03612
           D5           0.00000   0.00000   0.01690
           D6           0.00000   0.00000   0.00000   0.01690
 ITU=  0  1  0
 Use linear search instead of GDIIS.
     Eigenvalues ---    0.00230   0.01160   0.02474   0.03612   0.08838
     Eigenvalues ---    0.16000   0.16000   0.16516   0.19125   0.56866
     Eigenvalues ---    0.57681   0.57681   0.576971000.000001000.00000
     Eigenvalues --- 1000.000001000.000001000.000001000.00000
 RFO step:  Lambda=-2.95359329D-03 EMin= 2.29999867D-03
 Quartic linear search produced a step of  0.13149.
 Iteration  1 RMS(Cart)=  0.03353512 RMS(Int)=  0.00124644
 Iteration  2 RMS(Cart)=  0.00118566 RMS(Int)=  0.00001402
 Iteration  3 RMS(Cart)=  0.00000022 RMS(Int)=  0.00001402
 Iteration  1 RMS(Cart)=  0.00000000 RMS(Int)=  0.00000000
 Variable       Old X    -DE/DX   Delta X   Delta X   Delta X     New X
                                 (Linear)    (Quad)   (Total)
    R1        7.34197   0.00412   0.00000   0.00000   0.00000   7.34197
    R2        3.66201  -0.00862   0.00874  -0.05066  -0.04192   3.62010
    R3        1.86699  -0.00903   0.00629  -0.01818  -0.01189   1.85510
    R4        1.86699  -0.00903   0.00629  -0.01818  -0.01189   1.85510
    R5        1.84805  -0.00608   0.00463  -0.01222  -0.00760   1.84045
    R6        1.84522  -0.00513   0.00438  -0.01040  -0.00602   1.83920
    A1        2.70526   0.00053   0.00000   0.00000   0.00000   2.70526
    A2        2.13353   0.00804   0.01954   0.04397   0.06351   2.19705
    A3        2.13352   0.00804   0.01954   0.04397   0.06351   2.19704
    A4        2.01613  -0.01609  -0.03908  -0.08795  -0.12702   1.88910
    A5        2.18964   0.00002   0.02446  -0.01158   0.01287   2.20252
    A6        2.20101   0.00030   0.02545  -0.01006   0.01539   2.21640
    A7        1.89253  -0.00033  -0.04991   0.02164  -0.02827   1.86427
    D1        1.57449   0.00006   0.00033   0.00861   0.00897   1.58346
    D2       -1.56900   0.00003   0.00015   0.00787   0.00799  -1.56101
    D3       -3.14075   0.00002   0.00007   0.00036   0.00043  -3.14032
    D4        0.00124   0.00005   0.00011   0.00139   0.00151   0.00274
    D5        3.13982   0.00000  -0.00015  -0.00057  -0.00068   3.13914
    D6       -3.14126   0.00002   0.00003   0.00088   0.00089  -3.14036
         Item               Value     Threshold  Converged?
 Maximum Force            0.016088     0.000450     NO 
 RMS     Force            0.006366     0.000300     NO 
 Maximum Displacement     0.076415     0.001800     NO 
 RMS     Displacement     0.033790     0.001200     NO 
 Predicted change in Energy=-1.991750D-03
 GradGradGradGradGradGradGradGradGradGradGradGradGradGradGradGradGradGrad

                          Input orientation:                          
 ---------------------------------------------------------------------
 Center     Atomic      Atomic             Coordinates (Angstroms)
 Number     Number       Type             X           Y           Z
 ---------------------------------------------------------------------
      1         29           0       -0.039521    0.002493    0.008380
      2          8           0       -0.024625    0.000173    3.893553
      3          8           0        0.763406    0.000085   -1.730902
      4          1           0        0.290878    0.003589   -2.582510
      5          1           0        1.714631   -0.005979   -1.936750
      6          1           0       -0.029106    0.795187    4.469421
      7          1           0       -0.018023   -0.795549    4.468419
 ---------------------------------------------------------------------
                    Distance matrix (angstroms):
                    1          2          3          4          5
     1  Cu   0.000000
     2  O    3.885203   0.000000
     3  O    1.915672   5.679392   0.000000
     4  H    2.611872   6.483745   0.973926   0.000000
     5  H    2.619285   6.084200   0.973262   1.563384   0.000000
     6  H    4.530934   0.981678   6.301133   7.103433   6.687415
     7  H    4.530926   0.981676   6.298829   7.102792   6.682193
                    6          7
     6  H    0.000000
     7  H    1.590775   0.000000
 Stoichiometry    CuH4O2(2+,2)
 Framework group  C1[X(CuH4O2)]
 Deg. of freedom    15
 Full point group                 C1      NOp   1
 Largest Abelian subgroup         C1      NOp   1
 Largest concise Abelian subgroup C1      NOp   1
                         Standard orientation:                         
 ---------------------------------------------------------------------
 Center     Atomic      Atomic             Coordinates (Angstroms)
 Number     Number       Type             X           Y           Z
 ---------------------------------------------------------------------
      1         29           0        0.419404    0.220882   -0.001009
      2          8           0       -3.443767   -0.192290    0.000861
      3          8           0        2.231844   -0.399481    0.001952
      4          1           0        3.030516    0.157882    0.000339
      5          1           0        2.534138   -1.324604    0.004186
      6          1           0       -4.016963   -0.239712    0.796403
      7          1           0       -4.015022   -0.264965   -0.794170
 ---------------------------------------------------------------------
 Rotational constants (GHZ):     54.1637346      1.5326420      1.5017609
 Standard basis: 6-311G(d) (5D, 7F)
 There are   102 symmetry adapted cartesian basis functions of A   symmetry.
 There are    94 symmetry adapted basis functions of A   symmetry.
    94 basis functions,   165 primitive gaussians,   102 cartesian basis functions
    24 alpha electrons       23 beta electrons
       nuclear repulsion energy       141.1499198817 Hartrees.
 NAtoms=    7 NActive=    7 NUniq=    7 SFac= 1.00D+00 NAtFMM=   60 NAOKFM=F Big=F
 Integral buffers will be    131072 words long.
 Raffenetti 2 integral format.
 Two-electron integral symmetry is turned on.
 One-electron integrals computed using PRISM.
 NBasis=    94 RedAO= T EigKep=  9.37D-03  NBF=    94
 NBsUse=    94 1.00D-06 EigRej= -1.00D+00 NBFU=    94
 Initial guess from the checkpoint file:  "pescuh2o2.chk"
 B after Tr=     0.000000    0.000000    0.000000
         Rot=    0.999997    0.002392    0.000008    0.000554 Ang=   0.28 deg.
 Initial guess <Sx>= 0.0000 <Sy>= 0.0000 <Sz>= 0.5000 <S**2>= 0.7523 S= 0.5012
 ExpMin= 4.08D-02 ExpMax= 3.37D+05 ExpMxC= 1.14D+04 IAcc=2 IRadAn=         4 AccDes= 0.00D+00
 Harris functional with IExCor=  402 and IRadAn=       4 diagonalized for initial guess.
 HarFok:  IExCor=  402 AccDes= 0.00D+00 IRadAn=         4 IDoV= 1 UseB2=F ITyADJ=14
 ICtDFT=  3500011 ScaDFX=  1.000000  1.000000  1.000000  1.000000
 FoFCou: FMM=F IPFlag=           0 FMFlag=      100000 FMFlg1=           0
         NFxFlg=           0 DoJE=T BraDBF=F KetDBF=T FulRan=T
         wScrn=  0.000000 ICntrl=     500 IOpCl=  0 I1Cent=   200000004 NGrid=           0
         NMat0=    1 NMatS0=      1 NMatT0=    0 NMatD0=    1 NMtDS0=    0 NMtDT0=    0
 Petite list used in FoFCou.
 Keep R1 and R2 ints in memory in canonical form, NReq=21960552.
 Requested convergence on RMS density matrix=1.00D-08 within  64 cycles.
 Requested convergence on MAX density matrix=1.00D-06.
 Requested convergence on             energy=1.00D-06.
 No special actions if energy rises.
 SCF Done:  E(UB3LYP) =  -1792.54401812     A.U. after   22 cycles
            NFock= 22  Conv=0.33D-08     -V/T= 2.0007
 <Sx>= 0.0000 <Sy>= 0.0000 <Sz>= 0.5000 <S**2>= 0.7523 S= 0.5011
 <L.S>= 0.000000000000E+00
 Annihilation of the first spin contaminant:
 S**2 before annihilation     0.7523,   after     0.7500
 QCSCF skips out because SCF is already converged.
 Calling FoFJK, ICntrl=      2127 FMM=F ISym2X=0 I1Cent= 0 IOpClX= 1 NMat=1 NMatS=1 NMatT=0.
 ***** Axes restored to original set *****
 -------------------------------------------------------------------
 Center     Atomic                   Forces (Hartrees/Bohr)
 Number     Number              X              Y              Z
 -------------------------------------------------------------------
      1       29           0.002052264    0.000007855   -0.008074407
      2        8          -0.000063280   -0.000009647    0.001908373
      3        8           0.000270856    0.000015423   -0.001205283
      4        1          -0.001615719    0.000018779    0.002538581
      5        1          -0.000624647   -0.000034493    0.002797204
      6        1          -0.000027817   -0.002078960    0.001017616
      7        1           0.000008344    0.002081043    0.001017917
 -------------------------------------------------------------------
 Cartesian Forces:  Max     0.008074407 RMS     0.002210113

 GradGradGradGradGradGradGradGradGradGradGradGradGradGradGradGradGradGrad
 Berny optimization.
 Using GEDIIS/GDIIS optimizer.
 FormGI is forming the generalized inverse of G from B-inverse, IUseBI=4.
 Internal  Forces:  Max     0.004584303 RMS     0.001889588
 Search for a local minimum.
 Step number   4 out of a maximum of  100 on scan point     1 out of    26
 All quantities printed in internal units (Hartrees-Bohrs-Radians)
 Mixed Optimization -- RFO/linear search
 Update second derivatives using D2CorX and points    3    4
 DE= -2.20D-03 DEPred=-1.99D-03 R= 1.10D+00
 TightC=F SS=  1.41D+00  RLast= 1.66D-01 DXNew= 8.4853D-01 4.9918D-01
 Trust test= 1.10D+00 RLast= 1.66D-01 DXMaxT set to 5.05D-01
 The second derivative matrix:
                          R1        R2        R3        R4        R5
           R1           0.00859
           R2           0.00011   0.17457
           R3           0.00001  -0.01232   0.57028
           R4           0.00001  -0.01233  -0.00655   0.57025
           R5           0.00005  -0.00946  -0.00678  -0.00679   0.57075
           R6           0.00006  -0.00816  -0.00623  -0.00624  -0.00551
           A1           0.00001  -0.00008  -0.00018  -0.00018  -0.00010
           A2           0.00039   0.00826  -0.00287  -0.00286  -0.00098
           A3           0.00039   0.00826  -0.00286  -0.00285  -0.00098
           A4          -0.00077  -0.01652   0.00573   0.00571   0.00196
           A5           0.00039  -0.00343  -0.00887  -0.00887  -0.00625
           A6           0.00040  -0.00312  -0.00894  -0.00894  -0.00629
           A7          -0.00079   0.00655   0.01781   0.01781   0.01254
           D1           0.00000   0.00003   0.00002   0.00002   0.00001
           D2           0.00000   0.00006   0.00007   0.00007   0.00004
           D3           0.00000   0.00004   0.00005   0.00005   0.00003
           D4           0.00000   0.00011   0.00010   0.00010   0.00007
           D5           0.00000  -0.00002  -0.00001  -0.00001  -0.00001
           D6           0.00000   0.00002   0.00001   0.00001   0.00001
                          R6        A1        A2        A3        A4
           R6           0.57179
           A1          -0.00008   0.25000
           A2          -0.00135   0.00018   0.15218
           A3          -0.00135   0.00018  -0.00782   0.15218
           A4           0.00269  -0.00036   0.01563   0.01564   0.12873
           A5          -0.00580   0.00007  -0.00137  -0.00137   0.00274
           A6          -0.00586   0.00007  -0.00191  -0.00191   0.00382
           A7           0.01167  -0.00014   0.00328   0.00328  -0.00656
           D1           0.00001   0.00000  -0.00001  -0.00001   0.00002
           D2           0.00004   0.00000  -0.00006  -0.00006   0.00013
           D3           0.00002   0.00000  -0.00005  -0.00005   0.00010
           D4           0.00005   0.00000  -0.00011  -0.00011   0.00021
           D5          -0.00001   0.00000   0.00001   0.00001  -0.00002
           D6           0.00001   0.00000  -0.00001  -0.00001   0.00003
                          A5        A6        A7        D1        D2
           A5           0.15676
           A6          -0.00347   0.15628
           A7           0.00671   0.00719   0.14610
           D1           0.00001   0.00001  -0.00002   0.00230
           D2          -0.00001  -0.00001   0.00002   0.00000   0.00230
           D3          -0.00001  -0.00001   0.00002   0.00000   0.00000
           D4          -0.00001  -0.00001   0.00002   0.00000   0.00000
           D5          -0.00001   0.00000   0.00001   0.00000   0.00000
           D6           0.00000   0.00000   0.00000   0.00000   0.00000
                          D3        D4        D5        D6
           D3           0.03612
           D4           0.00000   0.03612
           D5           0.00000   0.00000   0.01690
           D6           0.00000   0.00000   0.00000   0.01690
 ITU=  1  0  1  0
 Use linear search instead of GDIIS.
     Eigenvalues ---    0.00230   0.01095   0.02493   0.03612   0.10503
     Eigenvalues ---    0.13435   0.16000   0.16001   0.18268   0.55624
     Eigenvalues ---    0.57680   0.57681   0.577941000.000001000.00000
     Eigenvalues --- 1000.000001000.000001000.000001000.00000
 RFO step:  Lambda=-2.67287994D-04 EMin= 2.29957505D-03
 Quartic linear search produced a step of  0.16877.
 Iteration  1 RMS(Cart)=  0.01456331 RMS(Int)=  0.00009061
 Iteration  2 RMS(Cart)=  0.00008746 RMS(Int)=  0.00000159
 Iteration  3 RMS(Cart)=  0.00000000 RMS(Int)=  0.00000159
 Iteration  1 RMS(Cart)=  0.00000000 RMS(Int)=  0.00000000
 Variable       Old X    -DE/DX   Delta X   Delta X   Delta X     New X
                                 (Linear)    (Quad)   (Total)
    R1        7.34197   0.00395   0.00000   0.00000   0.00000   7.34197
    R2        3.62010  -0.00458  -0.00707  -0.02413  -0.03120   3.58889
    R3        1.85510  -0.00109  -0.00201  -0.00149  -0.00349   1.85161
    R4        1.85510  -0.00109  -0.00201  -0.00149  -0.00350   1.85160
    R5        1.84045  -0.00143  -0.00128  -0.00254  -0.00382   1.83664
    R6        1.83920  -0.00121  -0.00102  -0.00225  -0.00326   1.83594
    A1        2.70526   0.00044   0.00000   0.00000   0.00000   2.70526
    A2        2.19705   0.00126   0.01072   0.00039   0.01111   2.20815
    A3        2.19704   0.00127   0.01072   0.00040   0.01112   2.20815
    A4        1.88910  -0.00253  -0.02144  -0.00079  -0.02223   1.86688
    A5        2.20252  -0.00167   0.00217  -0.01504  -0.01287   2.18965
    A6        2.21640  -0.00155   0.00260  -0.01460  -0.01200   2.20440
    A7        1.86427   0.00322  -0.00477   0.02964   0.02487   1.88913
    D1        1.58346   0.00005   0.00151   0.01247   0.01399   1.59745
[...]
           D1          89.76409  90.55279  91.09658  91.31552  90.90605
           D2         -89.76852 -90.51897 -91.16166 -91.28105 -91.00484
           D3         -82.66579 -82.52477 -82.48166 -82.49461 -82.75519
           D4          82.49119  82.30958  82.33810  82.49171  82.71191
           D5        -179.60011 179.08106 178.06232 177.77422 178.36668
           D6         167.21323 166.93354 166.92106 167.06688 167.49440
                          21        22        23        24        25
     Eigenvalues --  **************************************************
           R1           1.88520   1.78520   1.68520   1.58520   1.48520
           R2           1.84699   1.85411   1.85111   1.84742   1.84358
           R3           0.97790   0.97894   0.98155   0.98525   0.99012
           R4           0.97789   0.97894   0.98153   0.98524   0.99016
           R5           0.97755   0.97828   0.97799   0.97768   0.97746
           R6           0.97755   0.97829   0.97801   0.97770   0.97742
           A1         155.00000 155.00000 155.00000 155.00000 155.00000
           A2         125.95795 125.57219 126.03349 126.64424 127.38481
           A3         126.01974 125.59060 126.04638 126.62812 127.42332
           A4         108.01113 107.97196 107.19463 106.09521 104.62884
           A5         125.26676 125.99901 125.97489 125.96504 125.82571
           A6         125.25625 126.03471 125.99800 125.89032 125.91219
           A7         108.38112 107.91710 107.95318 108.01650 108.06617
           D1          89.65629  84.09982  84.16138  84.69949  85.01576
           D2         -88.97952 -83.95244 -84.81132 -84.89575 -85.03185
           D3         -83.80973 -88.54738 -88.06170 -87.64892 -87.13577
           D4          82.81203  88.58968  88.42956  87.73588  87.16223
           D5        -178.83980-169.80593-170.68335-171.32383-171.84484
           D6         168.51586 177.56714 177.01652 176.06943 175.14458
                          26
     Eigenvalues --  **********
           R1           1.38520
           R2           1.84215
           R3           0.99743
           R4           0.99742
           R5           0.97713
           R6           0.97712
           A1         155.00000
           A2         128.34905
           A3         128.31809
           A4         102.76806
           A5         125.84039
           A6         125.80147
           A7         108.12146
           D1          84.99970
           D2         -84.86436
           D3         -86.91800
           D4          86.81957
           D5        -171.86103
           D6         174.65869
                          Input orientation:                          
 ---------------------------------------------------------------------
 Center     Atomic      Atomic             Coordinates (Angstroms)
 Number     Number       Type             X           Y           Z
 ---------------------------------------------------------------------
      1         29           0        0.038226   -0.248866    1.072848
      2          8           0        0.073128   -0.061541    2.444882
      3          8           0        0.613028   -0.006416   -0.660455
      4          1           0        0.340460    0.717337   -1.257675
      5          1           0        1.305739   -0.527756   -1.111153
      6          1           0       -0.332242    0.676733    2.979191
      7          1           0        0.619302   -0.549490    3.121973
 ---------------------------------------------------------------------
                    Distance matrix (angstroms):
                    1          2          3          4          5
     1  Cu   0.000000
     2  O    1.385203   0.000000
     3  O    1.842150   3.152404   0.000000
     4  H    2.540911   3.793026   0.977129   0.000000
     5  H    2.540517   3.792370   0.977125   1.582242   0.000000
     6  H    2.151308   0.997427   3.821943   4.290129   4.567788
     7  H    2.151031   0.997422   3.821221   4.567703   4.288475
                    6          7
     6  H    0.000000
     7  H    1.558668   0.000000
 Stoichiometry    CuH4O2(2+,2)
 Framework group  C1[X(CuH4O2)]
 Deg. of freedom    15
 Full point group                 C1      NOp   1
 Largest Abelian subgroup         C1      NOp   1
 Largest concise Abelian subgroup C1      NOp   1
                         Standard orientation:                         
 ---------------------------------------------------------------------
 Center     Atomic      Atomic             Coordinates (Angstroms)
 Number     Number       Type             X           Y           Z
 ---------------------------------------------------------------------
      1         29           0       -0.096263    0.000586   -0.153459
      2          8           0       -1.434109   -0.000775    0.205645
      3          8           0        1.718041   -0.000599    0.165625
      4          1           0        2.274148    0.789835    0.309645
      5          1           0        2.273389   -0.792399    0.304961
      6          1           0       -2.014136    0.777614    0.434857
      7          1           0       -2.013228   -0.781048    0.430692
 ---------------------------------------------------------------------
 Rotational constants (GHZ):     90.2605299      4.9662510      4.9358102

 **********************************************************************

            Population analysis using the SCF density.

 **********************************************************************

 Orbital symmetries:
 Alpha Orbitals:
       Occupied  (A) (A) (A) (A) (A) (A) (A) (A) (A) (A) (A) (A)
                 (A) (A) (A) (A) (A) (A) (A) (A) (A) (A) (A) (A)
       Virtual   (A) (A) (A) (A) (A) (A) (A) (A) (A) (A) (A) (A)
                 (A) (A) (A) (A) (A) (A) (A) (A) (A) (A) (A) (A)
                 (A) (A) (A) (A) (A) (A) (A) (A) (A) (A) (A) (A)
                 (A) (A) (A) (A) (A) (A) (A) (A) (A) (A) (A) (A)
                 (A) (A) (A) (A) (A) (A) (A) (A) (A) (A) (A) (A)
                 (A) (A) (A) (A) (A) (A) (A) (A) (A) (A)
 Beta  Orbitals:
       Occupied  (A) (A) (A) (A) (A) (A) (A) (A) (A) (A) (A) (A)
                 (A) (A) (A) (A) (A) (A) (A) (A) (A) (A) (A)
       Virtual   (A) (A) (A) (A) (A) (A) (A) (A) (A) (A) (A) (A)
                 (A) (A) (A) (A) (A) (A) (A) (A) (A) (A) (A) (A)
                 (A) (A) (A) (A) (A) (A) (A) (A) (A) (A) (A) (A)
                 (A) (A) (A) (A) (A) (A) (A) (A) (A) (A) (A) (A)
                 (A) (A) (A) (A) (A) (A) (A) (A) (A) (A) (A) (A)
                 (A) (A) (A) (A) (A) (A) (A) (A) (A) (A) (A)
 The electronic state is 2-A.
 Alpha  occ. eigenvalues -- -323.58892 -39.41270 -34.64530 -34.63325 -34.61127
 Alpha  occ. eigenvalues --  -19.71888 -19.62794  -4.94787  -3.48428  -3.44353
 Alpha  occ. eigenvalues --   -3.40030  -1.62396  -1.50855  -1.14562  -1.12922
 Alpha  occ. eigenvalues --   -1.04223  -1.02322  -0.95012  -0.89560  -0.89347
 Alpha  occ. eigenvalues --   -0.88193  -0.86063  -0.82142  -0.80453
 Alpha virt. eigenvalues --   -0.45220  -0.37457  -0.33656  -0.30224  -0.27114
 Alpha virt. eigenvalues --   -0.19741  -0.18218  -0.04456  -0.02718   0.01818
 Alpha virt. eigenvalues --    0.14618   0.24130   0.28221   0.28991   0.39130
 Alpha virt. eigenvalues --    0.39567   0.59152   0.68722   0.87726   0.87910
 Alpha virt. eigenvalues --    0.92465   0.96093   1.01463   1.09328   1.20400
 Alpha virt. eigenvalues --    1.54290   1.54726   1.59427   1.59747   1.63988
 Alpha virt. eigenvalues --    2.13156   2.15015   2.22986   2.25569   2.34778
 Alpha virt. eigenvalues --    2.49360   2.63762   2.65715   2.67753   2.92859
 Alpha virt. eigenvalues --    3.15969   3.38072   3.38674   3.38697   3.38979
 Alpha virt. eigenvalues --    3.53727   3.62588   3.70938   4.23749   4.25919
 Alpha virt. eigenvalues --    4.41289   4.48164   4.50317   5.36281   6.57689
 Alpha virt. eigenvalues --    6.57777   6.68500   6.77518   7.03429   8.80655
 Alpha virt. eigenvalues --    8.87718   9.52920  31.52831  42.19767  42.25950
 Alpha virt. eigenvalues --   42.71989  49.19906  49.23681 183.55366 978.82481
  Beta  occ. eigenvalues -- -323.58879 -39.39215 -34.62083 -34.61339 -34.60555
  Beta  occ. eigenvalues --  -19.71290 -19.62454  -4.90662  -3.42079  -3.39182
  Beta  occ. eigenvalues --   -3.38623  -1.60934  -1.50080  -1.13260  -1.12320
  Beta  occ. eigenvalues --   -1.02053  -0.97825  -0.94010  -0.87348  -0.87335
  Beta  occ. eigenvalues --   -0.86250  -0.81086  -0.80195
  Beta virt. eigenvalues --   -0.65002  -0.44731  -0.37199  -0.33498  -0.29951
  Beta virt. eigenvalues --   -0.27030  -0.19544  -0.18191  -0.04384  -0.02492
  Beta virt. eigenvalues --    0.01930   0.16266   0.24991   0.29284   0.29288
  Beta virt. eigenvalues --    0.39358   0.39820   0.59918   0.69316   0.88444
  Beta virt. eigenvalues --    0.89189   0.93659   0.99880   1.01942   1.10479
  Beta virt. eigenvalues --    1.20963   1.54811   1.55874   1.59581   1.59761
  Beta virt. eigenvalues --    1.64140   2.14573   2.16704   2.24444   2.26523
  Beta virt. eigenvalues --    2.36024   2.50901   2.64322   2.66123   2.68871
  Beta virt. eigenvalues --    2.93084   3.17801   3.39310   3.39472   3.40991
  Beta virt. eigenvalues --    3.41585   3.56962   3.64337   3.71815   4.25023
  Beta virt. eigenvalues --    4.28333   4.41860   4.48631   4.50608   5.37631
  Beta virt. eigenvalues --    6.59345   6.59466   6.76256   6.79145   7.04775
  Beta virt. eigenvalues --    8.83893   8.88683   9.56490  31.55552  42.22434
  Beta virt. eigenvalues --   42.26773  42.75002  49.20476  49.24047 183.56405
  Beta virt. eigenvalues --  978.82695
          Condensed to atoms (all electrons):
               1          2          3          4          5          6
     1  Cu  27.456577   0.052133   0.108837  -0.006204  -0.006212  -0.013471
     2  O    0.052133   8.361050  -0.005225   0.000061   0.000062   0.225623
     3  O    0.108837  -0.005225   8.295341   0.244507   0.244506   0.000175
     4  H   -0.006204   0.000061   0.244507   0.207295  -0.014761   0.000054
     5  H   -0.006212   0.000062   0.244506  -0.014761   0.207357  -0.000008
     6  H   -0.013471   0.225623   0.000175   0.000054  -0.000008   0.208312
     7  H   -0.013493   0.225635   0.000176  -0.000008   0.000054  -0.014586
               7
     1  Cu  -0.013493
     2  O    0.225635
     3  O    0.000176
     4  H   -0.000008
     5  H    0.000054
     6  H   -0.014586
     7  H    0.208360
          Atomic-Atomic Spin Densities.
               1          2          3          4          5          6
     1  Cu   0.754541  -0.060713  -0.016545   0.000346   0.000346   0.000562
     2  O   -0.060713   0.299474  -0.002475   0.000013   0.000013  -0.002354
     3  O   -0.016545  -0.002475   0.130635  -0.001365  -0.001365  -0.000021
     4  H    0.000346   0.000013  -0.001365  -0.002207   0.000207  -0.000002
     5  H    0.000346   0.000013  -0.001365   0.000207  -0.002207   0.000000
     6  H    0.000562  -0.002354  -0.000021  -0.000002   0.000000  -0.005659
     7  H    0.000563  -0.002355  -0.000021   0.000000  -0.000002   0.000711
               7
     1  Cu   0.000563
     2  O   -0.002355
     3  O   -0.000021
     4  H    0.000000
     5  H   -0.000002
     6  H    0.000711
     7  H   -0.005664
 Mulliken charges and spin densities:
               1          2
     1  Cu   1.421832   0.679098
     2  O   -0.859338   0.231604
     3  O   -0.888317   0.108844
     4  H    0.569056  -0.003008
     5  H    0.569003  -0.003008
     6  H    0.593901  -0.006762
     7  H    0.593862  -0.006768
 Sum of Mulliken charges =   2.00000   1.00000
 Mulliken charges and spin densities with hydrogens summed into heavy atoms:
               1          2
     1  Cu   1.421832   0.679098
     2  O    0.328425   0.218073
     3  O    0.249743   0.102829
 Electronic spatial extent (au):  <R**2>=            243.6737
 Charge=              2.0000 electrons
 Dipole moment (field-independent basis, Debye):
    X=             -0.8410    Y=             -0.0066    Z=              1.5837  Tot=              1.7932
 Quadrupole moment (field-independent basis, Debye-Ang):
   XX=             10.0101   YY=            -14.5360   ZZ=            -20.3529
   XY=              0.0032   XZ=             -1.0768   YZ=              0.0146
 Traceless Quadrupole moment (field-independent basis, Debye-Ang):
   XX=             18.3030   YY=             -6.2430   ZZ=            -12.0600
   XY=              0.0032   XZ=             -1.0768   YZ=              0.0146
 Octapole moment (field-independent basis, Debye-Ang**2):
  XXX=              5.5551  YYY=             -0.0183  ZZZ=             -3.2560  XYY=             -0.1822
  XXY=             -0.0402  XXZ=             13.9091  XZZ=             -2.4045  YZZ=              0.0179
  YYZ=              1.4567  XYZ=              0.0090
 Hexadecapole moment (field-independent basis, Debye-Ang**3):
 XXXX=            -28.5289 YYYY=            -12.5063 ZZZZ=            -18.6225 XXXY=              0.0019
 XXXZ=             -0.9421 YYYX=              0.0059 YYYZ=              0.0056 ZZZX=             -0.9488
 ZZZY=              0.0120 XXYY=             -6.3978 XXZZ=            -34.0737 YYZZ=             -4.9968
 XXYZ=              0.0778 YYXZ=             -0.6795 ZZXY=              0.0007
 N-N= 2.151187201743D+02 E-N=-4.690053023836D+03  KE= 1.792488646840D+03
                          Isotropic Fermi Contact Couplings
        Atom                 a.u.       MegaHertz       Gauss      10(-4) cm-1
     1  Cu(63)            -0.07614     -90.31433     -32.22640     -30.12562
     2  O(17)              0.04284     -25.97119      -9.26717      -8.66306
     3  O(17)              0.03498     -21.20313      -7.56581      -7.07260
     4  H(1)              -0.00154      -6.86510      -2.44964      -2.28995
     5  H(1)              -0.00154      -6.86593      -2.44993      -2.29023
     6  H(1)              -0.00320     -14.29568      -5.10105      -4.76853
     7  H(1)              -0.00320     -14.31528      -5.10805      -4.77506
 --------------------------------------------------------
       Center         ----  Spin Dipole Couplings  ----
                      3XX-RR        3YY-RR        3ZZ-RR
 --------------------------------------------------------
     1   Atom        1.852686     -3.481791      1.629106
     2   Atom        0.058734     -0.489678      0.430944
     3   Atom       -0.024078     -0.274143      0.298221
     4   Atom        0.008430      0.005565     -0.013995
     5   Atom        0.008398      0.005684     -0.014082
     6   Atom        0.009991      0.009973     -0.019963
     7   Atom        0.009921      0.010246     -0.020167
 --------------------------------------------------------
                        XY            XZ            YZ
 --------------------------------------------------------
     1   Atom        0.003390     -0.991111     -0.014186
     2   Atom       -0.001398      0.624028     -0.002134
     3   Atom        0.000916     -0.341959     -0.001543
     4   Atom        0.022164      0.003366      0.007144
     5   Atom       -0.022181      0.003230     -0.007029
     6   Atom       -0.036543     -0.008430      0.018552
     7   Atom        0.036586     -0.008213     -0.018394
 --------------------------------------------------------


 ---------------------------------------------------------------------------------
              Anisotropic Spin Dipole Couplings in Principal Axis System
 ---------------------------------------------------------------------------------

       Atom             a.u.   MegaHertz   Gauss  10(-4) cm-1        Axes

              Baa    -3.4818  -492.963  -175.902  -164.435 -0.0001  1.0000  0.0028
     1 Cu(63) Bbb     0.7435   105.268    37.562    35.114  0.6663 -0.0020  0.7457
              Bcc     2.7383   387.695   138.339   129.321  0.7457  0.0019 -0.6663
 
              Baa    -0.4897    35.433    12.643    11.819 -0.0004  1.0000  0.0026
     2 O(17)  Bbb    -0.4063    29.403    10.492     9.808  0.8018  0.0018 -0.5976
              Bcc     0.8960   -64.836   -23.135   -21.627  0.5976 -0.0018  0.8018
 
              Baa    -0.2741    19.837     7.078     6.617  0.0001  1.0000  0.0028
     3 O(17)  Bbb    -0.2410    17.435     6.221     5.816  0.8445 -0.0016  0.5356
              Bcc     0.5151   -37.273   -13.300   -12.433 -0.5356 -0.0023  0.8445
 
              Baa    -0.0181    -9.649    -3.443    -3.218  0.4049 -0.5904  0.6982
     4 H(1)   Bbb    -0.0123    -6.585    -2.350    -2.197 -0.5731  0.4312  0.6969
              Bcc     0.0304    16.234     5.793     5.415  0.7125  0.6823  0.1637
 
              Baa    -0.0181    -9.647    -3.442    -3.218  0.4049  0.5856  0.7022
     5 H(1)   Bbb    -0.0123    -6.585    -2.350    -2.196 -0.5737 -0.4354  0.6938
              Bcc     0.0304    16.232     5.792     5.415  0.7120 -0.6838  0.1597
 
              Baa    -0.0328   -17.493    -6.242    -5.835 -0.4168 -0.6374  0.6481
     6 H(1)   Bbb    -0.0189   -10.067    -3.592    -3.358  0.6187  0.3234  0.7159
              Bcc     0.0517    27.560     9.834     9.193 -0.6660  0.6994  0.2596
 
              Baa    -0.0328   -17.492    -6.242    -5.835 -0.4173  0.6334  0.6517
     7 H(1)   Bbb    -0.0189   -10.067    -3.592    -3.358  0.6191 -0.3269  0.7140
              Bcc     0.0517    27.559     9.834     9.193  0.6653  0.7014 -0.2557
 

 ---------------------------------------------------------------------------------

 B after Tr=     0.177671    0.480032   -1.036867
         Rot=    0.985526   -0.029749    0.015615    0.166163 Ang= -19.52 deg.
 Atom   5 needs variable   3=   0.9771249467 but is    0.9771293932
 Input z-matrix variables are not compatible with final structure.
 1\1\GINC-MILLENNIUM-FALCON\Scan\UB3LYP\6-311G(d)\Cu1H4O2(2+,2)\JAKE\18
 -Jun-2016\0\\#opt=(modredundant,maxcycles=350) B3LYP/6-311G* scf=xqc\\
 cu2(h20)2\\2,2\Cu,-0.061850362,-0.3509708928,1.0645254429\O,-0.0269482
 221,-0.163646069,2.4365599185\O,0.5129509666,-0.1085211031,-0.66877764
 54\H,0.2403837555,0.6152315746,-1.265997059\H,1.205662635,-0.629861358
 3,-1.1194749321\H,-0.4323185167,0.5746285542,2.9708682897\H,0.51922517
 93,-0.6515952742,3.1136502893\\Version=EM64L-G09RevD.01\State=2-A\HF=-
 1792.5443613,-1792.5436999,-1792.5431414,-1792.5427169,-1792.5424783,-
 1792.5424955,-1792.5428219,-1792.5435338,-1792.5447307,-1792.5464882,-
 1792.5488958,-1792.5550839,-1792.5590255,-1792.5638573,-1792.5695982,-
 1792.5761764,-1792.5833824,-1792.5908462,-1792.5979379,-1792.6037426,-
 1792.6069854,-1792.6060024,-1792.5971253,-1792.5748515,-1792.5307149,-
 1792.4514302\S2=0.752303,0.75228,0.752256,0.752233,0.75221,0.752187,0.
 752168,0.752153,0.752139,0.752123,0.752082,0.755613,0.754808,0.754034,
 0.753309,0.752677,0.752177,0.751829,0.751615,0.751504,0.751487,0.75151
 3,0.751562,0.751626,0.751693,0.75175\S2-1=0.,0.,0.,0.,0.,0.,0.,0.,0.,0
 .,0.,0.,0.,0.,0.,0.,0.,0.,0.,0.,0.,0.,0.,0.,0.,0.\S2A=0.750004,0.75000
 4,0.750004,0.750003,0.750003,0.750003,0.750003,0.750003,0.750003,0.750
 003,0.750003,0.750006,0.750005,0.750004,0.750003,0.750002,0.750002,0.7
 50002,0.750001,0.750001,0.750002,0.750002,0.750002,0.750002,0.750002,0
 .750002\RMSD=5.715e-09,3.341e-09,7.247e-09,1.496e-09,5.836e-09,1.992e-
 09,1.522e-09,4.523e-09,8.335e-09,3.793e-09,4.531e-09,2.878e-09,5.365e-
 09,2.097e-09,4.175e-09,6.694e-09,3.939e-09,4.769e-09,3.977e-09,3.677e-
 09,7.810e-09,5.851e-09,4.201e-10,5.938e-09,4.431e-09,5.090e-09\PG=C01 
 [X(Cu1H4O2)]\\@


 CLIMB THE MOUNTAINS AND GET THEIR GOOD TIDINGS.
 NATURE'S PEACE WILL FLOW INTO YOU AS SUNSHINE FLOWS INTO TREES.
 THE WINDS WILL BLOW THEIR OWN FRESHNESS INTO YOU, 
 AND CARES WILL DROP OFF LIKE AUTUMN LEAVES.

                                         -- JOHN MUIR
 Job cpu time:       0 days  0 hours 47 minutes 28.1 seconds.
 File lengths (MBytes):  RWF=     10 Int=      0 D2E=      0 Chk=      3 Scr=      1
 Normal termination of Gaussian 09 at Sat Jun 18 17:50:56 2016.
