 Entering Gaussian System, Link 0=g09
 Input=2coord_b3lyp_A_F_105.inp
 Output=2coord_b3lyp_A_F_105.log
 Initial command:
 /usr/local/g09/l1.exe "./Gau-5575.inp" -scrdir="./"
 Entering Link 1 = /usr/local/g09/l1.exe PID=      5577.
  
 Copyright (c) 1988,1990,1992,1993,1995,1998,2003,2009,2013,
            Gaussian, Inc.  All Rights Reserved.
  
 This is part of the Gaussian(R) 09 program.  It is based on
 the Gaussian(R) 03 system (copyright 2003, Gaussian, Inc.),
 the Gaussian(R) 98 system (copyright 1998, Gaussian, Inc.),
 the Gaussian(R) 94 system (copyright 1995, Gaussian, Inc.),
 the Gaussian 92(TM) system (copyright 1992, Gaussian, Inc.),
 the Gaussian 90(TM) system (copyright 1990, Gaussian, Inc.),
 the Gaussian 88(TM) system (copyright 1988, Gaussian, Inc.),
 the Gaussian 86(TM) system (copyright 1986, Carnegie Mellon
 University), and the Gaussian 82(TM) system (copyright 1983,
 Carnegie Mellon University). Gaussian is a federally registered
 trademark of Gaussian, Inc.
  
 This software contains proprietary and confidential information,
 including trade secrets, belonging to Gaussian, Inc.
  
 This software is provided under written license and may be
 used, copied, transmitted, or stored only in accord with that
 written license.
  
 The following legend is applicable only to US Government
 contracts under FAR:
  
                    RESTRICTED RIGHTS LEGEND
  
 Use, reproduction and disclosure by the US Government is
 subject to restrictions as set forth in subparagraphs (a)
 and (c) of the Commercial Computer Software - Restricted
 Rights clause in FAR 52.227-19.
  
 Gaussian, Inc.
 340 Quinnipiac St., Bldg. 40, Wallingford CT 06492
  
  
 ---------------------------------------------------------------
 Warning -- This program may not be used in any manner that
 competes with the business of Gaussian, Inc. or will provide
 assistance to any competitor of Gaussian, Inc.  The licensee
 of this program is prohibited from giving any competitor of
 Gaussian, Inc. access to this program.  By using this program,
 the user acknowledges that Gaussian, Inc. is engaged in the
 business of creating and licensing software in the field of
 computational chemistry and represents and warrants to the
 licensee that it is not a competitor of Gaussian, Inc. and that
 it will not use this program in any manner prohibited above.
 ---------------------------------------------------------------
  

 Cite this work as:
 Gaussian 09, Revision D.01,
 M. J. Frisch, G. W. Trucks, H. B. Schlegel, G. E. Scuseria, 
 M. A. Robb, J. R. Cheeseman, G. Scalmani, V. Barone, B. Mennucci, 
 G. A. Petersson, H. Nakatsuji, M. Caricato, X. Li, H. P. Hratchian, 
 A. F. Izmaylov, J. Bloino, G. Zheng, J. L. Sonnenberg, M. Hada, 
 M. Ehara, K. Toyota, R. Fukuda, J. Hasegawa, M. Ishida, T. Nakajima, 
 Y. Honda, O. Kitao, H. Nakai, T. Vreven, J. A. Montgomery, Jr., 
 J. E. Peralta, F. Ogliaro, M. Bearpark, J. J. Heyd, E. Brothers, 
 K. N. Kudin, V. N. Staroverov, T. Keith, R. Kobayashi, J. Normand, 
 K. Raghavachari, A. Rendell, J. C. Burant, S. S. Iyengar, J. Tomasi, 
 M. Cossi, N. Rega, J. M. Millam, M. Klene, J. E. Knox, J. B. Cross, 
 V. Bakken, C. Adamo, J. Jaramillo, R. Gomperts, R. E. Stratmann, 
 O. Yazyev, A. J. Austin, R. Cammi, C. Pomelli, J. W. Ochterski, 
 R. L. Martin, K. Morokuma, V. G. Zakrzewski, G. A. Voth, 
 P. Salvador, J. J. Dannenberg, S. Dapprich, A. D. Daniels, 
 O. Farkas, J. B. Foresman, J. V. Ortiz, J. Cioslowski, 
 and D. J. Fox, Gaussian, Inc., Wallingford CT, 2013.
 
 ******************************************
 Gaussian 09:  EM64L-G09RevD.01 24-Apr-2013
                17-Jun-2016 
 ******************************************
 %mem=2GB
 %nprocshared=1
 Will use up to    1 processors via shared memory.
 %chk=pescuh2o2.chk
 -------------------------------------------------------
 #opt=(modredundant,maxcycles=350) B3LYP/6-311G* scf=xqc
 -------------------------------------------------------
 1/6=350,14=-1,18=120,19=15,26=3,38=1/1,3;
 2/9=110,12=2,17=6,18=5,40=1/2;
 3/5=4,6=6,7=1,11=2,16=1,25=1,30=1,71=1,74=-5/1,2,3;
 4//1;
 5/5=2,8=3,13=1,38=5/2,8;
 6/7=2,8=2,9=2,10=2,28=1/1;
 7//1,2,3,16;
 1/6=350,14=-1,18=20,19=15,26=3/3(2);
 2/9=110/2;
 99//99;
 2/9=110/2;
 3/5=4,6=6,7=1,11=2,16=1,25=1,30=1,71=1,74=-5/1,2,3;
 4/5=5,16=3,69=1/1;
 5/5=2,8=3,13=1,38=5/2,8;
 7//1,2,3,16;
 1/6=350,14=-1,18=20,19=15,26=3/3(-5);
 2/9=110/2;
 6/7=2,8=2,9=2,10=2,19=2,28=1/1;
 99/9=1/99;
 ---------
 cu2(h20)2
 ---------
 Symbolic Z-matrix:
 Charge =  2 Multiplicity = 2
 Cu
 O                    1    A
 O                    1    B        2    H
 H                    3    C        1    D        2    E        0
 H                    3    C        1    D        2    F        0
 H                    2    C        1    D        3    G        0
 H                    2    C        1    D        6    E        0
       Variables:
  A                     3.8852                   
  B                     1.88506                  
  C                     0.95                     
  D                   109.471                    
  E                   180.                       
  F                     0.                       
  G                    90.                       
  H                   105.                       
 
     4 tetrahedral angles replaced.
 Add virtual bond connecting atoms O2         and Cu1        Dist= 7.34D+00.
 The following ModRedundant input section has been read:
 A       2       1       3 F                                                   
 B       1       2 S  25 -0.100                                                
 

 GradGradGradGradGradGradGradGradGradGradGradGradGradGradGradGradGradGrad
 Berny optimization.
 Initialization pass.
                           ----------------------------
                           !    Initial Parameters    !
                           ! (Angstroms and Degrees)  !
 --------------------------                            --------------------------
 ! Name  Definition              Value          Derivative Info.                !
 --------------------------------------------------------------------------------
 ! R1    R(1,2)                  3.8852         Scan                            !
 ! R2    R(1,3)                  1.8851         estimate D2E/DX2                !
 ! R3    R(2,6)                  0.95           estimate D2E/DX2                !
 ! R4    R(2,7)                  0.95           estimate D2E/DX2                !
 ! R5    R(3,4)                  0.95           estimate D2E/DX2                !
 ! R6    R(3,5)                  0.95           estimate D2E/DX2                !
 ! A1    A(2,1,3)              105.0            Frozen                          !
 ! A2    A(1,2,6)              109.4712         estimate D2E/DX2                !
 ! A3    A(1,2,7)              109.4712         estimate D2E/DX2                !
 ! A4    A(6,2,7)              141.0576         estimate D2E/DX2                !
 ! A5    A(1,3,4)              109.4712         estimate D2E/DX2                !
 ! A6    A(1,3,5)              109.4712         estimate D2E/DX2                !
 ! A7    A(4,3,5)              141.0576         estimate D2E/DX2                !
 ! D1    D(3,1,2,6)             90.0            estimate D2E/DX2                !
 ! D2    D(3,1,2,7)            -90.0            estimate D2E/DX2                !
 ! D3    D(2,1,3,4)            180.0            estimate D2E/DX2                !
 ! D4    D(2,1,3,5)              0.0            estimate D2E/DX2                !
 ! D5    D(1,2,6,7)            180.0            estimate D2E/DX2                !
 ! D6    D(1,3,4,5)            180.0            estimate D2E/DX2                !
 --------------------------------------------------------------------------------
 Trust Radius=3.00D-01 FncErr=1.00D-07 GrdErr=1.00D-06
 Number of optimizations in scan=  26
 Number of steps in this run=    100 maximum allowed number of steps=    100.
 GradGradGradGradGradGradGradGradGradGradGradGradGradGradGradGradGradGrad

                          Input orientation:                          
 ---------------------------------------------------------------------
 Center     Atomic      Atomic             Coordinates (Angstroms)
 Number     Number       Type             X           Y           Z
 ---------------------------------------------------------------------
      1         29           0        0.000000    0.000000    0.000000
      2          8           0        0.000000    0.000000    3.885203
      3          8           0        1.820829    0.000000   -0.487890
      4          1           0        1.894890    0.000000   -1.434998
      5          1           0        2.358522    0.000000    0.295300
      6          1           0        0.000000    0.895669    4.201870
      7          1           0        0.000000   -0.895669    4.201870
 ---------------------------------------------------------------------
                    Distance matrix (angstroms):
                    1          2          3          4          5
     1  Cu   0.000000
     2  O    3.885203   0.000000
     3  O    1.885061   4.737020   0.000000
     4  H    2.376936   5.647579   0.950000   0.000000
     5  H    2.376936   4.295349   0.950000   1.791337   0.000000
     6  H    4.296269   0.950000   5.109940   6.013910   4.650390
     7  H    4.296269   0.950000   5.109940   6.013910   4.650390
                    6          7
     6  H    0.000000
     7  H    1.791337   0.000000
 Stoichiometry    CuH4O2(2+,2)
 Framework group  CS[SG(CuH2O2),X(H2)]
 Deg. of freedom    10
 Full point group                 CS      NOp   2
 Largest Abelian subgroup         CS      NOp   2
 Largest concise Abelian subgroup CS      NOp   2
                         Standard orientation:                         
 ---------------------------------------------------------------------
 Center     Atomic      Atomic             Coordinates (Angstroms)
 Number     Number       Type             X           Y           Z
 ---------------------------------------------------------------------
      1         29           0        0.000000    0.801000    0.000000
      2          8           0       -1.862970   -2.608420    0.000000
      3          8           0        1.831795    0.356048    0.000000
      4          1           0        2.350928    1.151661    0.000000
      5          1           0        1.928099   -0.589058    0.000000
      6          1           0       -2.014813   -2.886308    0.895669
      7          1           0       -2.014813   -2.886308   -0.895669
 ---------------------------------------------------------------------
 Rotational constants (GHZ):     11.0498719      1.9971800      1.7099699
 Standard basis: 6-311G(d) (5D, 7F)
 There are    74 symmetry adapted cartesian basis functions of A'  symmetry.
 There are    28 symmetry adapted cartesian basis functions of A"  symmetry.
 There are    67 symmetry adapted basis functions of A'  symmetry.
 There are    27 symmetry adapted basis functions of A"  symmetry.
    94 basis functions,   165 primitive gaussians,   102 cartesian basis functions
    24 alpha electrons       23 beta electrons
       nuclear repulsion energy       146.1439396768 Hartrees.
 NAtoms=    7 NActive=    7 NUniq=    6 SFac= 1.36D+00 NAtFMM=   60 NAOKFM=F Big=F
 Integral buffers will be    131072 words long.
 Raffenetti 2 integral format.
 Two-electron integral symmetry is turned on.
 One-electron integrals computed using PRISM.
 NBasis=    94 RedAO= T EigKep=  1.33D-02  NBF=    67    27
 NBsUse=    94 1.00D-06 EigRej= -1.00D+00 NBFU=    67    27
 ExpMin= 4.08D-02 ExpMax= 3.37D+05 ExpMxC= 1.14D+04 IAcc=2 IRadAn=         4 AccDes= 0.00D+00
 Harris functional with IExCor=  402 and IRadAn=       4 diagonalized for initial guess.
 HarFok:  IExCor=  402 AccDes= 0.00D+00 IRadAn=         4 IDoV= 1 UseB2=F ITyADJ=14
 ICtDFT=  3500011 ScaDFX=  1.000000  1.000000  1.000000  1.000000
 FoFCou: FMM=F IPFlag=           0 FMFlag=      100000 FMFlg1=           0
         NFxFlg=           0 DoJE=T BraDBF=F KetDBF=T FulRan=T
         wScrn=  0.000000 ICntrl=     500 IOpCl=  0 I1Cent=   200000004 NGrid=           0
         NMat0=    1 NMatS0=      1 NMatT0=    0 NMatD0=    1 NMtDS0=    0 NMtDT0=    0
 Petite list used in FoFCou.
 Initial guess orbital symmetries:
 Alpha Orbitals:
       Occupied  (A') (A') (A') (A') (A") (A') (A') (A') (A') (A')
                 (A") (A') (A') (A') (A") (A') (A") (A') (A') (A')
                 (A') (A') (A") (A")
       Virtual   (A') (A') (A') (A') (A") (A') (A') (A') (A') (A")
                 (A") (A') (A') (A') (A') (A") (A') (A') (A") (A')
                 (A') (A") (A') (A") (A') (A') (A') (A') (A') (A")
                 (A") (A") (A") (A') (A') (A') (A') (A") (A') (A')
                 (A') (A') (A") (A') (A") (A') (A") (A') (A") (A')
                 (A') (A') (A") (A') (A") (A') (A") (A') (A') (A")
                 (A') (A') (A') (A") (A') (A') (A') (A') (A') (A')
 Beta  Orbitals:
       Occupied  (A') (A') (A') (A') (A") (A') (A') (A') (A') (A')
                 (A") (A') (A') (A') (A") (A') (A") (A') (A') (A')
                 (A') (A') (A")
       Virtual   (A") (A') (A') (A') (A') (A") (A') (A') (A') (A')
                 (A") (A") (A') (A') (A') (A') (A") (A') (A') (A")
                 (A') (A') (A") (A') (A") (A') (A') (A') (A') (A')
                 (A") (A") (A") (A") (A') (A') (A') (A') (A") (A')
                 (A') (A') (A') (A") (A') (A") (A') (A") (A') (A")
                 (A') (A') (A') (A") (A') (A") (A') (A") (A') (A')
                 (A") (A') (A') (A') (A") (A') (A') (A') (A') (A')
                 (A')
 The electronic state of the initial guess is 2-A".
 Initial guess <Sx>= 0.0000 <Sy>= 0.0000 <Sz>= 0.5000 <S**2>= 0.7500 S= 0.5000
 Keep R1 and R2 ints in memory in symmetry-blocked form, NReq=15545797.
 Requested convergence on RMS density matrix=1.00D-08 within  64 cycles.
 Requested convergence on MAX density matrix=1.00D-06.
 Requested convergence on             energy=1.00D-06.
 No special actions if energy rises.
 EnCoef did   100 forward-backward iterations
 EnCoef did   100 forward-backward iterations
 EnCoef did   100 forward-backward iterations
 EnCoef did   100 forward-backward iterations
 EnCoef did    11 forward-backward iterations
 EnCoef did   100 forward-backward iterations
 EnCoef did    35 forward-backward iterations
 EnCoef did   100 forward-backward iterations
 EnCoef did   100 forward-backward iterations
 EnCoef did   100 forward-backward iterations
 EnCoef did   100 forward-backward iterations
 EnCoef did   100 forward-backward iterations
 EnCoef did   100 forward-backward iterations
 EnCoef did   100 forward-backward iterations
 Rare condition: small coef for last iteration:  0.000D+00
 Rare condition: small coef for last iteration:  0.000D+00
 Rare condition: small coef for last iteration:  0.000D+00
 Rare condition: small coef for last iteration:  0.000D+00
 Rare condition: small coef for last iteration:  0.000D+00
 Rare condition: small coef for last iteration:  0.000D+00
 Rare condition: small coef for last iteration:  0.000D+00
 Rare condition: small coef for last iteration:  0.000D+00
 Rare condition: small coef for last iteration:  0.000D+00
 Rare condition: small coef for last iteration:  0.000D+00
 Rare condition: small coef for last iteration:  0.000D+00
 Rare condition: small coef for last iteration:  0.000D+00
 Rare condition: small coef for last iteration:  0.000D+00
 Rare condition: small coef for last iteration:  0.000D+00
 Rare condition: small coef for last iteration:  0.000D+00
 Rare condition: small coef for last iteration:  0.000D+00
 Rare condition: small coef for last iteration:  0.000D+00
 Rare condition: small coef for last iteration:  0.000D+00
 Rare condition: small coef for last iteration:  0.000D+00
 Rare condition: small coef for last iteration:  0.000D+00
 Rare condition: small coef for last iteration:  0.000D+00
 Rare condition: small coef for last iteration:  0.000D+00
 >>>>>>>>>> Convergence criterion not met.
 SCF Done:  E(UB3LYP) =  -1792.39299732     A.U. after   65 cycles
            NFock= 64  Conv=0.29D-06     -V/T= 1.9988
 <Sx>= 0.0000 <Sy>= 0.0000 <Sz>= 0.5000 <S**2>= 0.7516 S= 0.5008
 <L.S>= 0.000000000000E+00
 Annihilation of the first spin contaminant:
 S**2 before annihilation     0.7516,   after     0.7500
 Keep R1 and R2 ints in memory in symmetry-blocked form, NReq=15602405.
 Gradient too large for Newton-Raphson -- use scaled steepest descent instead.
  Beta Gap=    -0.404 HL deriv= 3.37D-17 Rot set to   8.00D-01
     Minimum is close to point  2 DX=  7.08D-03 DF= -3.17D-05 DXR=  2.30D-02 DFR=  5.31D-04 which will be used.
 Gradient too large for Newton-Raphson -- use scaled steepest descent instead.
     Accept linear search using points  2 and  3.
 Gradient too large for Newton-Raphson -- use scaled steepest descent instead.
 Gradient too large for Newton-Raphson -- use scaled steepest descent instead.
 Gradient too large for Newton-Raphson -- use scaled steepest descent instead.
     Accept linear search using points  1 and  2.
 Gradient too large for Newton-Raphson -- use scaled steepest descent instead.
     Accept linear search using points  3 and  4.
 Gradient too large for Newton-Raphson -- use scaled steepest descent instead.
     Minimum is close to point  3 DX=  1.94D-02 DF= -1.34D-05 DXR=  6.07D-02 DFR=  3.70D-03 which will be used.
 Gradient too large for Newton-Raphson -- use scaled steepest descent instead.
     Minimum is close to point  5 DX=  2.91D-01 DF= -3.66D-05 DXR=  6.21D-02 DFR=  3.92D-03 which will be used.
 Gradient too large for Newton-Raphson -- use scaled steepest descent instead.
 Gradient too large for Newton-Raphson -- use scaled steepest descent instead.
 Gradient too large for Newton-Raphson -- use scaled steepest descent instead.
     Accept linear search using points  1 and  2.
 Gradient too large for Newton-Raphson -- use scaled steepest descent instead.
 Gradient too large for Newton-Raphson -- use scaled steepest descent instead.
     Accept linear search using points  1 and  2.
 Gradient too large for Newton-Raphson -- use scaled steepest descent instead.
 Gradient too large for Newton-Raphson -- use scaled steepest descent instead.
     Accept linear search using points  1 and  2.
 LinEq1:  Iter=  0 NonCon=     1 RMS=3.63D-04 Max=1.87D-02 NDo=     1
 AX will form     1 AO Fock derivatives at one time.
 LinEq1:  Iter=  1 NonCon=     1 RMS=2.26D-03 Max=7.14D-02 NDo=     1
 LinEq1:  Iter=  2 NonCon=     1 RMS=7.31D-04 Max=2.19D-02 NDo=     1
 LinEq1:  Iter=  3 NonCon=     1 RMS=9.42D-04 Max=3.72D-02 NDo=     1
 LinEq1:  Iter=  4 NonCon=     1 RMS=4.13D-04 Max=6.80D-03 NDo=     1
 LinEq1:  Iter=  5 NonCon=     1 RMS=1.87D-04 Max=3.35D-03 NDo=     1
 LinEq1:  Iter=  6 NonCon=     1 RMS=6.47D-05 Max=2.59D-03 NDo=     1
 LinEq1:  Iter=  7 NonCon=     1 RMS=2.99D-05 Max=7.55D-04 NDo=     1
 LinEq1:  Iter=  8 NonCon=     1 RMS=2.54D-05 Max=4.32D-04 NDo=     1
 LinEq1:  Iter=  9 NonCon=     1 RMS=1.30D-05 Max=3.76D-04 NDo=     1
 LinEq1:  Iter= 10 NonCon=     1 RMS=3.11D-06 Max=1.02D-04 NDo=     1
 LinEq1:  Iter= 11 NonCon=     1 RMS=1.12D-06 Max=3.60D-05 NDo=     1
 LinEq1:  Iter= 12 NonCon=     1 RMS=3.64D-07 Max=9.34D-06 NDo=     1
 LinEq1:  Iter= 13 NonCon=     1 RMS=8.53D-08 Max=1.63D-06 NDo=     1
 LinEq1:  Iter= 14 NonCon=     1 RMS=2.42D-08 Max=6.14D-07 NDo=     1
 LinEq1:  Iter= 15 NonCon=     1 RMS=1.13D-08 Max=4.18D-07 NDo=     1
 LinEq1:  Iter= 16 NonCon=     0 RMS=3.03D-09 Max=5.12D-08 NDo=     1
 Linear equations converged to 5.756D-09 5.756D-08 after    16 iterations.
     Accept linear search using points  1 and  2.
     Minimum is close to point  2 DX= -5.11D-03 DF= -1.20D-09 DXR=  5.14D-03 DFR=  2.65D-05 which will be used.
 LinEq1:  Iter=  0 NonCon=     1 RMS=3.44D-05 Max=1.97D-03 NDo=     1
 LinEq1:  Iter=  1 NonCon=     1 RMS=4.53D-05 Max=1.57D-03 NDo=     1
 LinEq1:  Iter=  2 NonCon=     1 RMS=5.57D-05 Max=1.86D-03 NDo=     1
 LinEq1:  Iter=  3 NonCon=     1 RMS=2.65D-05 Max=6.15D-04 NDo=     1
 LinEq1:  Iter=  4 NonCon=     1 RMS=1.18D-05 Max=2.63D-04 NDo=     1
 LinEq1:  Iter=  5 NonCon=     1 RMS=1.14D-05 Max=4.31D-04 NDo=     1
 LinEq1:  Iter=  6 NonCon=     1 RMS=5.02D-06 Max=1.19D-04 NDo=     1
 LinEq1:  Iter=  7 NonCon=     1 RMS=1.65D-06 Max=2.94D-05 NDo=     1
 LinEq1:  Iter=  8 NonCon=     1 RMS=5.41D-07 Max=1.90D-05 NDo=     1
 LinEq1:  Iter=  9 NonCon=     1 RMS=2.42D-07 Max=8.12D-06 NDo=     1
 LinEq1:  Iter= 10 NonCon=     1 RMS=5.75D-08 Max=9.19D-07 NDo=     1
 LinEq1:  Iter= 11 NonCon=     1 RMS=1.73D-08 Max=3.84D-07 NDo=     1
 LinEq1:  Iter= 12 NonCon=     1 RMS=3.35D-09 Max=6.06D-08 NDo=     1
 LinEq1:  Iter= 13 NonCon=     1 RMS=1.32D-09 Max=5.59D-08 NDo=     1
 LinEq1:  Iter= 14 NonCon=     1 RMS=5.41D-10 Max=1.56D-08 NDo=     1
 LinEq1:  Iter= 15 NonCon=     0 RMS=1.31D-10 Max=2.54D-09 NDo=     1
 Linear equations converged to 1.235D-09 1.235D-08 after    15 iterations.
     Minimum is close to point  2 DX=  2.62D-02 DF= -2.05D-12 DXR=  2.55D-02 DFR=  7.30D-04 which will be used.
 Density matrix breaks symmetry, PCut= 1.00D-04
 Density matrix has no symmetry -- integrals replicated.
 Density matrix is not symmetric, so final MOs not symmetrized.
 SCF Done:  E(UB3LYP) =  -1792.49271770     a.u. after   18 cycles
            Convg  =    0.5646D-06                    81 Fock formations.
              S**2 =  0.7523                  -V/T =  2.0006
 <Sx>= 0.0000 <Sy>= 0.0000 <Sz>= 0.5000 <S**2>= 0.7523 S= 0.5012
 <L.S>= 0.000000000000E+00
 Annihilation of the first spin contaminant:
 S**2 before annihilation     0.7523,   after     0.7500

 **********************************************************************

            Population analysis using the SCF density.

 **********************************************************************

 Orbital symmetries:
 Alpha Orbitals:
       Occupied  (A') (A') (A") (A") (A") (A') (A') (A') (?A) (?A)
                 (?A) (A') (A') (A') (A") (A') (?B) (A') (A') (?B)
                 (?B) (?B) (?B) (?B)
       Virtual   (A') (A') (A') (A') (A") (A') (A') (A') (A') (A")
                 (A') (A") (A') (A') (A') (A") (A') (A') (?C) (?C)
                 (?C) (?C) (A') (A") (A') (A') (A') (A') (A') (A")
                 (A") (A") (A') (A') (A") (A') (A') (A') (A") (A')
                 (A') (?D) (?D) (?D) (?D) (?D) (?D) (?D) (A') (A")
                 (A') (A') (A") (A') (?E) (?E) (?E) (?E) (A') (A")
                 (A') (A') (A') (?C) (?C) (A') (A') (A') (A') (A')
 Beta  Orbitals:
       Occupied  (A') (A') (A") (A") (A") (A') (A') (A') (?A) (?A)
                 (?A) (A') (A') (A') (A") (A') (?B) (A') (?B) (?B)
                 (?B) (?B) (?B)
       Virtual   (?B) (A') (A') (A') (A') (A") (A') (A') (A') (A')
                 (A") (A') (A") (A') (A') (A') (A") (A') (A') (A")
                 (A') (?C) (?C) (?C) (A") (A') (A') (A') (A') (A')
                 (A") (A") (A") (A") (A') (A') (A') (A') (A") (A')
                 (A') (A') (?D) (?D) (?D) (?D) (?D) (?D) (?D) (A")
                 (A') (A') (A') (A") (A') (?E) (?E) (A") (A') (A')
                 (A") (A') (A') (A') (A") (A') (A') (A') (A') (A')
                 (A')
 Unable to determine electronic state:  an orbital has unidentified symmetry.
 Alpha  occ. eigenvalues -- -323.44563 -39.24004 -34.46693 -34.46583 -34.45051
 Alpha  occ. eigenvalues --  -19.57096 -19.57012  -4.77576  -3.28433  -3.28232
 Alpha  occ. eigenvalues --   -3.25106  -1.45968  -1.44850  -1.03779  -1.01622
 Alpha  occ. eigenvalues --   -0.86588  -0.80473  -0.78050  -0.76822  -0.75304
 Alpha  occ. eigenvalues --   -0.75240  -0.75167  -0.74485  -0.72802
 Alpha virt. eigenvalues --   -0.49954  -0.32321  -0.31062  -0.24209  -0.21226
 Alpha virt. eigenvalues --   -0.18537  -0.04678  -0.03139   0.04476   0.11736
 Alpha virt. eigenvalues --    0.28420   0.30381   0.33678   0.36549   0.43542
 Alpha virt. eigenvalues --    0.52396   0.68028   0.74074   0.82842   0.86626
 Alpha virt. eigenvalues --    0.99130   0.99138   1.01107   1.01650   1.21664
 Alpha virt. eigenvalues --    1.27903   1.54036   1.55329   1.72496   1.73169
 Alpha virt. eigenvalues --    2.27195   2.27962   2.35140   2.35291   2.37018
 Alpha virt. eigenvalues --    2.53010   2.69347   2.72667   2.72770   3.03205
 Alpha virt. eigenvalues --    3.03579   3.48227   3.48332   3.48538   3.49870
 Alpha virt. eigenvalues --    3.49910   3.51042   3.51480   4.26454   4.29155
 Alpha virt. eigenvalues --    4.34722   4.43938   4.64227   4.66790   6.70750
 Alpha virt. eigenvalues --    6.70827   6.71117   6.77910   6.83504   8.79071
 Alpha virt. eigenvalues --    8.87097   9.10212  31.49278  42.25332  42.31167
 Alpha virt. eigenvalues --   42.46467  49.26081  49.29075 183.56002 978.81560
  Beta  occ. eigenvalues -- -323.44563 -39.22897 -34.45494 -34.45367 -34.44773
  Beta  occ. eigenvalues --  -19.56834 -19.55670  -4.75298  -3.25165  -3.24985
  Beta  occ. eigenvalues --   -3.24360  -1.45566  -1.41215  -1.03662  -1.00630
  Beta  occ. eigenvalues --   -0.86300  -0.76662  -0.75293  -0.74322  -0.74094
  Beta  occ. eigenvalues --   -0.74010  -0.71825  -0.66025
  Beta virt. eigenvalues --   -0.63398  -0.49685  -0.32233  -0.30556  -0.24164
  Beta virt. eigenvalues --   -0.20962  -0.18420  -0.04637  -0.02786   0.04514
  Beta virt. eigenvalues --    0.11884   0.28724   0.31020   0.37244   0.38127
  Beta virt. eigenvalues --    0.43712   0.53099   0.68328   0.75970   0.84124
  Beta virt. eigenvalues --    0.86898   0.99510   0.99599   1.01670   1.04443
  Beta virt. eigenvalues --    1.22020   1.28655   1.54370   1.55413   1.72487
  Beta virt. eigenvalues --    1.73052   2.28497   2.31901   2.37585   2.39517
  Beta virt. eigenvalues --    2.39782   2.53613   2.69439   2.73529   2.73822
  Beta virt. eigenvalues --    3.03821   3.05286   3.50081   3.50238   3.50445
  Beta virt. eigenvalues --    3.50510   3.51071   3.51610   3.51977   4.29884
  Beta virt. eigenvalues --    4.32770   4.35965   4.44121   4.65497   4.66939
  Beta virt. eigenvalues --    6.71683   6.71739   6.75574   6.78837   6.84295
  Beta virt. eigenvalues --    8.81056   8.87612   9.12182  31.50753  42.26889
  Beta virt. eigenvalues --   42.31598  42.48031  49.27519  49.29252 183.56556
  Beta virt. eigenvalues --  978.81669
          Condensed to atoms (all electrons):
               1          2          3          4          5          6
     1  Cu  27.648976   0.004503   0.111803  -0.005366  -0.004869  -0.000208
     2  O    0.004503   8.054728  -0.000003  -0.000010   0.000154   0.249804
     3  O    0.111803  -0.000003   8.328009   0.243369   0.245322   0.000006
     4  H   -0.005366  -0.000010   0.243369   0.193003  -0.009121   0.000001
     5  H   -0.004869   0.000154   0.245322  -0.009121   0.203700  -0.000001
     6  H   -0.000208   0.249804   0.000006   0.000001  -0.000001   0.211905
     7  H   -0.000207   0.249805   0.000006   0.000001  -0.000002  -0.011102
               7
     1  Cu  -0.000207
     2  O    0.249805
     3  O    0.000006
     4  H    0.000001
     5  H   -0.000002
     6  H   -0.011102
     7  H    0.211906
          Atomic-Atomic Spin Densities.
               1          2          3          4          5          6
     1  Cu   0.418120  -0.000295  -0.007352   0.000050  -0.000009   0.000015
     2  O   -0.000295   0.580201   0.000000   0.000001   0.000001  -0.006599
     3  O   -0.007352   0.000000   0.066688  -0.000473  -0.000440   0.000000
     4  H    0.000050   0.000001  -0.000473  -0.001541   0.000027   0.000000
     5  H   -0.000009   0.000001  -0.000440   0.000027  -0.001591   0.000000
     6  H    0.000015  -0.006599   0.000000   0.000000   0.000000  -0.009881
     7  H    0.000015  -0.006601   0.000000   0.000000   0.000000   0.000602
               7
     1  Cu   0.000015
     2  O   -0.006601
     3  O    0.000000
     4  H    0.000000
     5  H    0.000000
     6  H    0.000602
     7  H   -0.009878
 Mulliken charges and spin densities:
               1          2
     1  Cu   1.245367   0.410545
     2  O   -0.558981   0.566706
     3  O   -0.928513   0.058423
     4  H    0.578123  -0.001936
     5  H    0.564816  -0.002013
     6  H    0.549594  -0.015863
     7  H    0.549592  -0.015862
 Sum of Mulliken charges =   2.00000   1.00000
 Mulliken charges and spin densities with hydrogens summed into heavy atoms:
               1          2
     1  Cu   1.245367   0.410545
     2  O    0.540206   0.534981
     3  O    0.214427   0.054474
 Electronic spatial extent (au):  <R**2>=            592.0004
 Charge=              2.0000 electrons
 Dipole moment (field-independent basis, Debye):
    X=             -2.0366    Y=             -3.5564    Z=             -0.0002  Tot=              4.0983
 Quadrupole moment (field-independent basis, Debye-Ang):
   XX=              3.8863   YY=             13.5650   ZZ=            -16.5572
   XY=             19.1706   XZ=             -0.0019   YZ=              0.0037
 Traceless Quadrupole moment (field-independent basis, Debye-Ang):
   XX=              3.5883   YY=             13.2670   ZZ=            -16.8553
   XY=             19.1706   XZ=             -0.0019   YZ=              0.0037
 Octapole moment (field-independent basis, Debye-Ang**2):
  XXX=              1.9705  YYY=            -52.9563  ZZZ=             -0.0017  XYY=            -46.6134
  XXY=            -24.0547  XXZ=             -0.0020  XZZ=            -10.7634  YZZ=             -6.3559
  YYZ=              0.0030  XYZ=              0.0016
 Hexadecapole moment (field-independent basis, Debye-Ang**3):
 XXXX=           -135.7109 YYYY=            -50.0180 ZZZZ=            -11.1812 XXXY=              0.4600
 XXXZ=             -0.0158 YYYX=             73.1423 YYYZ=              0.0132 ZZZX=             -0.0048
 ZZZY=              0.0022 XXYY=             43.6385 XXZZ=            -30.4432 YYZZ=            -14.7073
 XXYZ=             -0.0012 YYXZ=             -0.0022 ZZXY=             -7.8502
 N-N= 1.461439396768D+02 E-N=-4.557835262264D+03  KE= 1.791497301200D+03
 Symmetry A'   KE= 1.565885592850D+03
 Symmetry A"   KE= 2.256117083507D+02
                          Isotropic Fermi Contact Couplings
        Atom                 a.u.       MegaHertz       Gauss      10(-4) cm-1
     1  Cu(63)            -0.13666    -162.09767     -57.84048     -54.06996
     2  O(17)              0.06248     -37.87540     -13.51488     -12.63387
     3  O(17)              0.01088      -6.59411      -2.35294      -2.19956
     4  H(1)              -0.00107      -4.79473      -1.71088      -1.59935
     5  H(1)              -0.00108      -4.80824      -1.71570      -1.60386
     6  H(1)              -0.00856     -38.24796     -13.64782     -12.75815
     7  H(1)              -0.00856     -38.24833     -13.64795     -12.75827
 --------------------------------------------------------
       Center         ----  Spin Dipole Couplings  ----
                      3XX-RR        3YY-RR        3ZZ-RR
 --------------------------------------------------------
     1   Atom        0.807738     -1.747022      0.939284
     2   Atom        1.425785     -0.318472     -1.107312
     3   Atom       -0.120094     -0.146732      0.266826
     4   Atom        0.006134      0.002451     -0.008585
     5   Atom       -0.003014      0.012181     -0.009167
     6   Atom       -0.034176     -0.046692      0.080868
     7   Atom       -0.034194     -0.046673      0.080867
 --------------------------------------------------------
                        XY            XZ            YZ
 --------------------------------------------------------
     1   Atom       -0.675985      0.012769      0.035088
     2   Atom       -1.418748      0.000979     -0.000548
     3   Atom       -0.005721      0.002223     -0.001742
     4   Atom        0.012168      0.000007     -0.000037
     5   Atom       -0.006860      0.000020      0.000093
     6   Atom       -0.010373     -0.025276     -0.045909
     7   Atom       -0.010384      0.025202      0.045949
 --------------------------------------------------------


 ---------------------------------------------------------------------------------
              Anisotropic Spin Dipole Couplings in Principal Axis System
 ---------------------------------------------------------------------------------

       Atom             a.u.   MegaHertz   Gauss  10(-4) cm-1        Axes

              Baa    -1.9153  -271.177   -96.763   -90.455  0.2410  0.9704 -0.0130
     1 Cu(63) Bbb     0.9393   132.993    47.455    44.362 -0.1017  0.0386  0.9941
              Bcc     0.9760   138.184    49.308    46.093  0.9652 -0.2382  0.1080
 
              Baa    -1.1117    80.443    28.704    26.833  0.4880  0.8728  0.0002
     2 O(17)  Bbb    -1.1073    80.124    28.590    26.727 -0.0004  0.0000  1.0000
              Bcc     2.2190  -160.567   -57.294   -53.559  0.8728 -0.4880  0.0003
 
              Baa    -0.1479    10.703     3.819     3.570  0.2012  0.9795  0.0030
     3 O(17)  Bbb    -0.1189     8.606     3.071     2.871  0.9795 -0.2012 -0.0066
              Bcc     0.2668   -19.309    -6.890    -6.441  0.0058 -0.0043  1.0000
 
              Baa    -0.0086    -4.581    -1.635    -1.528 -0.0365  0.0436  0.9984
     4 H(1)   Bbb    -0.0080    -4.275    -1.525    -1.426 -0.6510  0.7569 -0.0569
              Bcc     0.0166     8.857     3.160     2.954  0.7582  0.6521 -0.0007
 
              Baa    -0.0092    -4.892    -1.745    -1.632 -0.0126 -0.0084  0.9999
     5 H(1)   Bbb    -0.0057    -3.016    -1.076    -1.006  0.9333  0.3589  0.0148
              Bcc     0.0148     7.907     2.821     2.638 -0.3590  0.9333  0.0033
 
              Baa    -0.0707   -37.707   -13.455   -12.578  0.4609  0.8251  0.3268
     6 H(1)   Bbb    -0.0283   -15.111    -5.392    -5.040  0.8735 -0.4869 -0.0025
              Bcc     0.0990    52.817    18.847    17.618 -0.1571 -0.2866  0.9451
 
              Baa    -0.0707   -37.706   -13.455   -12.577  0.4607  0.8252 -0.3268
     7 H(1)   Bbb    -0.0283   -15.111    -5.392    -5.040  0.8736 -0.4866  0.0031
              Bcc     0.0990    52.817    18.846    17.618  0.1565  0.2870  0.9451
 

 ---------------------------------------------------------------------------------

 Density matrix is not symmetric, so symmetry will not be used here.
 Density matrix is not symmetric, so symmetry will not be used here.
 Calling FoFJK, ICntrl=      2127 FMM=F ISym2X=0 I1Cent= 0 IOpClX= 1 NMat=1 NMatS=1 NMatT=0.
 ***** Axes restored to original set *****
 -------------------------------------------------------------------
 Center     Atomic                   Forces (Hartrees/Bohr)
 Number     Number              X              Y              Z
 -------------------------------------------------------------------
      1       29          -0.009269496    0.000026561   -0.002071393
      2        8           0.001202756   -0.000012389   -0.072925846
      3        8          -0.078570525   -0.000022895    0.024125461
      4        1           0.044273709   -0.000015616   -0.012350252
      5        1           0.044086774    0.000023124   -0.015101712
      6        1          -0.000871383    0.007747792    0.039160569
      7        1          -0.000851834   -0.007746578    0.039163173
 -------------------------------------------------------------------
 Cartesian Forces:  Max     0.078570525 RMS     0.030580440

 GradGradGradGradGradGradGradGradGradGradGradGradGradGradGradGradGradGrad
 Berny optimization.
 FormGI is forming the generalized inverse of G from B-inverse, IUseBI=4.
 Internal  Forces:  Max     0.052716826 RMS     0.020653789
 Search for a local minimum.
 Step number   1 out of a maximum of  100 on scan point     1 out of    26
 All quantities printed in internal units (Hartrees-Bohrs-Radians)
 Mixed Optimization -- RFO/linear search
 Second derivative matrix not updated -- first step.
 The second derivative matrix:
                          R1        R2        R3        R4        R5
           R1           0.00858
           R2           0.00000   0.19001
           R3           0.00000   0.00000   0.57681
           R4           0.00000   0.00000   0.00000   0.57681
           R5           0.00000   0.00000   0.00000   0.00000   0.57681
           R6           0.00000   0.00000   0.00000   0.00000   0.00000
           A1           0.00000   0.00000   0.00000   0.00000   0.00000
           A2           0.00000   0.00000   0.00000   0.00000   0.00000
           A3           0.00000   0.00000   0.00000   0.00000   0.00000
           A4           0.00000   0.00000   0.00000   0.00000   0.00000
           A5           0.00000   0.00000   0.00000   0.00000   0.00000
           A6           0.00000   0.00000   0.00000   0.00000   0.00000
           A7           0.00000   0.00000   0.00000   0.00000   0.00000
           D1           0.00000   0.00000   0.00000   0.00000   0.00000
           D2           0.00000   0.00000   0.00000   0.00000   0.00000
           D3           0.00000   0.00000   0.00000   0.00000   0.00000
           D4           0.00000   0.00000   0.00000   0.00000   0.00000
           D5           0.00000   0.00000   0.00000   0.00000   0.00000
           D6           0.00000   0.00000   0.00000   0.00000   0.00000
                          R6        A1        A2        A3        A4
           R6           0.57681
           A1           0.00000   0.25000
           A2           0.00000   0.00000   0.16000
           A3           0.00000   0.00000   0.00000   0.16000
           A4           0.00000   0.00000   0.00000   0.00000   0.16000
           A5           0.00000   0.00000   0.00000   0.00000   0.00000
           A6           0.00000   0.00000   0.00000   0.00000   0.00000
           A7           0.00000   0.00000   0.00000   0.00000   0.00000
           D1           0.00000   0.00000   0.00000   0.00000   0.00000
           D2           0.00000   0.00000   0.00000   0.00000   0.00000
           D3           0.00000   0.00000   0.00000   0.00000   0.00000
           D4           0.00000   0.00000   0.00000   0.00000   0.00000
           D5           0.00000   0.00000   0.00000   0.00000   0.00000
           D6           0.00000   0.00000   0.00000   0.00000   0.00000
                          A5        A6        A7        D1        D2
           A5           0.16000
           A6           0.00000   0.16000
           A7           0.00000   0.00000   0.16000
           D1           0.00000   0.00000   0.00000   0.00230
           D2           0.00000   0.00000   0.00000   0.00000   0.00230
           D3           0.00000   0.00000   0.00000   0.00000   0.00000
           D4           0.00000   0.00000   0.00000   0.00000   0.00000
           D5           0.00000   0.00000   0.00000   0.00000   0.00000
           D6           0.00000   0.00000   0.00000   0.00000   0.00000
                          D3        D4        D5        D6
           D3           0.03612
           D4           0.00000   0.03612
           D5           0.00000   0.00000   0.01690
           D6           0.00000   0.00000   0.00000   0.01690
 ITU=  0
     Eigenvalues ---    0.00230   0.01424   0.02039   0.03612   0.16000
     Eigenvalues ---    0.16000   0.16000   0.16000   0.19001   0.57681
     Eigenvalues ---    0.57681   0.57681   0.576811000.000001000.00000
     Eigenvalues --- 1000.000001000.000001000.000001000.00000
 RFO step:  Lambda=-3.66086511D-02 EMin= 2.30000000D-03
 Linear search not attempted -- first point.
 Maximum step size (   0.300) exceeded in Quadratic search.
    -- Step size scaled by   0.709
 Iteration  1 RMS(Cart)=  0.06836592 RMS(Int)=  0.00327288
 Iteration  2 RMS(Cart)=  0.00323135 RMS(Int)=  0.00022101
 Iteration  3 RMS(Cart)=  0.00000319 RMS(Int)=  0.00022098
 Iteration  4 RMS(Cart)=  0.00000000 RMS(Int)=  0.00022098
 Iteration  1 RMS(Cart)=  0.00000000 RMS(Int)=  0.00000000
 Variable       Old X    -DE/DX   Delta X   Delta X   Delta X     New X
                                 (Linear)    (Quad)   (Total)
    R1        7.34197   0.00538   0.00000   0.00000   0.00000   7.34197
    R2        3.56225   0.01036   0.00000   0.03242   0.03242   3.59467
    R3        1.79524   0.02036   0.00000   0.02354   0.02354   1.81878
    R4        1.79524   0.02036   0.00000   0.02354   0.02354   1.81878
    R5        1.79524   0.01576   0.00000   0.01822   0.01822   1.81346
    R6        1.79524   0.01252   0.00000   0.01448   0.01448   1.80972
    A1        1.83260   0.00532   0.00000   0.00000   0.00000   1.83260
    A2        1.91063   0.02054   0.00000   0.07412   0.07410   1.98474
    A3        1.91063   0.02055   0.00000   0.07414   0.07412   1.98475
    A4        2.46192  -0.04109   0.00000  -0.14826  -0.14827   2.31365
    A5        1.91063   0.02484   0.00000   0.08961   0.08961   2.00025
    A6        1.91063   0.02788   0.00000   0.10059   0.10059   2.01122
    A7        2.46192  -0.05272   0.00000  -0.19020  -0.19020   2.27171
    D1        1.57080   0.00029   0.00000   0.00409   0.00468   1.57548
    D2       -1.57080  -0.00026   0.00000  -0.00349  -0.00408  -1.57488
    D3        3.14159  -0.00003   0.00000  -0.00030  -0.00030   3.14129
    D4        0.00000  -0.00003   0.00000  -0.00033  -0.00034  -0.00034
    D5        3.14159  -0.00081   0.00000  -0.01137  -0.01089   3.13070
    D6        3.14159   0.00000   0.00000  -0.00004  -0.00004   3.14155
         Item               Value     Threshold  Converged?
 Maximum Force            0.052717     0.000450     NO 
 RMS     Force            0.021758     0.000300     NO 
 Maximum Displacement     0.144830     0.001800     NO 
 RMS     Displacement     0.068948     0.001200     NO 
 Predicted change in Energy=-1.840841D-02
 GradGradGradGradGradGradGradGradGradGradGradGradGradGradGradGradGradGrad

                          Input orientation:                          
 ---------------------------------------------------------------------
 Center     Atomic      Atomic             Coordinates (Angstroms)
 Number     Number       Type             X           Y           Z
 ---------------------------------------------------------------------
      1         29           0       -0.038890    0.000230   -0.005590
      2          8           0       -0.015953   -0.000012    3.879545
      3          8           0        1.795573   -0.000024   -0.508759
      4          1           0        1.950117   -0.000253   -1.455877
      5          1           0        2.418449    0.000126    0.218660
      6          1           0       -0.017654    0.881125    4.266737
      7          1           0       -0.017402   -0.881192    4.266640
 ---------------------------------------------------------------------
                    Distance matrix (angstroms):
                    1          2          3          4          5
     1  Cu   0.000000
     2  O    3.885203   0.000000
     3  O    1.902218   4.747509   0.000000
     4  H    2.461601   5.686137   0.959643   0.000000
     5  H    2.467550   4.396407   0.957660   1.738794   0.000000
     6  H    4.362248   0.962457   5.183587   6.115329   4.806005
     7  H    4.362260   0.962457   5.183413   6.115094   4.805854
                    6          7
     6  H    0.000000
     7  H    1.762317   0.000000
 Stoichiometry    CuH4O2(2+,2)
 Framework group  C1[X(CuH4O2)]
 Deg. of freedom    15
 Full point group                 C1      NOp   1
 Omega: Change in point group or standard orientation.

 Old FWG=CS   [SG(Cu1H2O2),X(H2)]
 New FWG=C01  [X(Cu1H4O2)]
 Largest Abelian subgroup         C1      NOp   1
 Largest concise Abelian subgroup C1      NOp   1
                         Standard orientation:                         
 ---------------------------------------------------------------------
 Center     Atomic      Atomic             Coordinates (Angstroms)
 Number     Number       Type             X           Y           Z
 ---------------------------------------------------------------------
      1         29           0        0.610922    0.524228   -0.000003
      2          8           0       -3.194967   -0.256803   -0.000009
      3          8           0        1.462569   -1.176693    0.000014
      4          1           0        2.421632   -1.143348   -0.000246
      5          1           0        0.870759   -1.929603    0.000309
      6          1           0       -3.575017   -0.330579    0.881151
      7          1           0       -3.574919   -0.331110   -0.881167
 ---------------------------------------------------------------------
 Rotational constants (GHZ):     10.7755354      1.9853742      1.6940749
 Standard basis: 6-311G(d) (5D, 7F)
 There are   102 symmetry adapted cartesian basis functions of A   symmetry.
 There are    94 symmetry adapted basis functions of A   symmetry.
    94 basis functions,   165 primitive gaussians,   102 cartesian basis functions
    24 alpha electrons       23 beta electrons
       nuclear repulsion energy       144.7300155345 Hartrees.
 NAtoms=    7 NActive=    7 NUniq=    7 SFac= 1.00D+00 NAtFMM=   60 NAOKFM=F Big=F
 Integral buffers will be    131072 words long.
 Raffenetti 2 integral format.
 Two-electron integral symmetry is turned on.
 One-electron integrals computed using PRISM.
 NBasis=    94 RedAO= T EigKep=  9.37D-03  NBF=    94
 NBsUse=    94 1.00D-06 EigRej= -1.00D+00 NBFU=    94
 Initial guess from the checkpoint file:  "pescuh2o2.chk"
 B after Tr=     0.000000    0.000000    0.000000
         Rot=    0.906945    0.000016    0.000008    0.421248 Ang=  49.83 deg.
 Initial guess <Sx>= 0.0000 <Sy>= 0.0000 <Sz>= 0.5000 <S**2>= 0.7524 S= 0.5012
 ExpMin= 4.08D-02 ExpMax= 3.37D+05 ExpMxC= 1.14D+04 IAcc=2 IRadAn=         4 AccDes= 0.00D+00
 Harris functional with IExCor=  402 and IRadAn=       4 diagonalized for initial guess.
 HarFok:  IExCor=  402 AccDes= 0.00D+00 IRadAn=         4 IDoV= 1 UseB2=F ITyADJ=14
 ICtDFT=  3500011 ScaDFX=  1.000000  1.000000  1.000000  1.000000
 FoFCou: FMM=F IPFlag=           0 FMFlag=      100000 FMFlg1=           0
         NFxFlg=           0 DoJE=T BraDBF=F KetDBF=T FulRan=T
         wScrn=  0.000000 ICntrl=     500 IOpCl=  0 I1Cent=   200000004 NGrid=           0
         NMat0=    1 NMatS0=      1 NMatT0=    0 NMatD0=    1 NMtDS0=    0 NMtDT0=    0
 Petite list used in FoFCou.
 Keep R1 and R2 ints in memory in canonical form, NReq=21961562.
 Requested convergence on RMS density matrix=1.00D-08 within  64 cycles.
 Requested convergence on MAX density matrix=1.00D-06.
 Requested convergence on             energy=1.00D-06.
 No special actions if energy rises.
 EnCoef did    11 forward-backward iterations
 EnCoef did    34 forward-backward iterations
 SCF Done:  E(UB3LYP) =  -1792.51600181     A.U. after   24 cycles
            NFock= 24  Conv=0.20D-08     -V/T= 2.0006
 <Sx>= 0.0000 <Sy>= 0.0000 <Sz>= 0.5000 <S**2>= 0.7523 S= 0.5012
 <L.S>= 0.000000000000E+00
 Annihilation of the first spin contaminant:
 S**2 before annihilation     0.7523,   after     0.7500
 QCSCF skips out because SCF is already converged.
 Calling FoFJK, ICntrl=      2127 FMM=F ISym2X=0 I1Cent= 0 IOpClX= 1 NMat=1 NMatS=1 NMatT=0.
 ***** Axes restored to original set *****
 -------------------------------------------------------------------
 Center     Atomic                   Forces (Hartrees/Bohr)
 Number     Number              X              Y              Z
 -------------------------------------------------------------------
      1       29          -0.001923844    0.000027359   -0.003546100
      2        8           0.001028942   -0.000009120   -0.057800590
      3        8          -0.059279700   -0.000012815    0.016931043
      4        1           0.032494859   -0.000021095   -0.001563136
      5        1           0.029178908    0.000018562   -0.016798275
      6        1          -0.000758871   -0.003579160    0.031387253
      7        1          -0.000740293    0.003576270    0.031389805
 -------------------------------------------------------------------
 Cartesian Forces:  Max     0.059279700 RMS     0.023246240

 GradGradGradGradGradGradGradGradGradGradGradGradGradGradGradGradGradGrad
 Berny optimization.
 Using GEDIIS/GDIIS optimizer.
 FormGI is forming the generalized inverse of G from B-inverse, IUseBI=4.
 Internal  Forces:  Max     0.039201285 RMS     0.015610928
 Search for a local minimum.
 Step number   2 out of a maximum of  100 on scan point     1 out of    26
 All quantities printed in internal units (Hartrees-Bohrs-Radians)
 Mixed Optimization -- RFO/linear search
 Update second derivatives using D2CorX and points    1    2
 DE= -2.33D-02 DEPred=-1.84D-02 R= 1.26D+00
 TightC=F SS=  1.41D+00  RLast= 3.00D-01 DXNew= 5.0454D-01 9.0077D-01
 Trust test= 1.26D+00 RLast= 3.00D-01 DXMaxT set to 5.05D-01
 The second derivative matrix:
                          R1        R2        R3        R4        R5
           R1           0.00860
           R2           0.00054   0.19745
           R3           0.00077   0.00878   0.58520
           R4           0.00077   0.00878   0.00839   0.58520
           R5           0.00063   0.00740   0.00736   0.00736   0.58322
           R6           0.00044   0.00478   0.00427   0.00427   0.00380
           A1           0.00004   0.00070   0.00101   0.00101   0.00083
           A2           0.00016  -0.00190  -0.00643  -0.00643  -0.00480
           A3           0.00016  -0.00190  -0.00643  -0.00643  -0.00480
           A4          -0.00032   0.00381   0.01288   0.01288   0.00962
           A5           0.00044   0.00237  -0.00106  -0.00106  -0.00032
           A6           0.00050   0.00280  -0.00099  -0.00099  -0.00020
           A7          -0.00095  -0.00518   0.00205   0.00205   0.00052
           D1          -0.00001  -0.00022  -0.00032  -0.00032  -0.00026
           D2           0.00001   0.00022   0.00032   0.00032   0.00026
           D3           0.00000   0.00001   0.00001   0.00001   0.00001
           D4           0.00000   0.00001   0.00002   0.00002   0.00001
           D5          -0.00001  -0.00015  -0.00016  -0.00016  -0.00014
           D6           0.00000   0.00000   0.00000   0.00000   0.00000
                          R6        A1        A2        A3        A4
           R6           0.57893
           A1           0.00058   0.25005
           A2          -0.00413   0.00021   0.15157
           A3          -0.00414   0.00021  -0.00844   0.15156
           A4           0.00828  -0.00041   0.01688   0.01688   0.12623
           A5          -0.00116   0.00058  -0.00882  -0.00883   0.01766
           A6          -0.00119   0.00066  -0.00986  -0.00987   0.01974
           A7           0.00235  -0.00124   0.01868   0.01869  -0.03740
           D1          -0.00019  -0.00002  -0.00007  -0.00007   0.00015
           D2           0.00018   0.00002   0.00007   0.00007  -0.00014
           D3           0.00001   0.00000   0.00001   0.00001  -0.00002
           D4           0.00001   0.00000   0.00001   0.00001  -0.00002
           D5          -0.00009  -0.00002   0.00008   0.00008  -0.00015
           D6           0.00000   0.00000   0.00000   0.00000   0.00000
                          A5        A6        A7        D1        D2
           A5           0.15319
           A6          -0.00753   0.15167
           A7           0.01435   0.01586   0.12979
           D1          -0.00019  -0.00022   0.00041   0.00230
           D2           0.00019   0.00022  -0.00040   0.00000   0.00230
           D3           0.00001   0.00001  -0.00003   0.00000   0.00000
           D4           0.00001   0.00002  -0.00003   0.00000   0.00000
           D5          -0.00001  -0.00002   0.00003   0.00001  -0.00001
           D6           0.00000   0.00000   0.00000   0.00000   0.00000
                          D3        D4        D5        D6
           D3           0.03612
           D4           0.00000   0.03612
           D5           0.00000   0.00000   0.01690
           D6           0.00000   0.00000   0.00000   0.01690
 ITU=  1  0
 Use linear search instead of GDIIS.
 Linear search step of   0.543 exceeds DXMaxT=   0.505 but not scaled.
 Quartic linear search produced a step of  1.80856.
 Iteration  1 RMS(Cart)=  0.09972331 RMS(Int)=  0.03244344
 Iteration  2 RMS(Cart)=  0.03197329 RMS(Int)=  0.00125948
 Iteration  3 RMS(Cart)=  0.00077063 RMS(Int)=  0.00094933
 Iteration  4 RMS(Cart)=  0.00000026 RMS(Int)=  0.00094933
 Iteration  1 RMS(Cart)=  0.00000000 RMS(Int)=  0.00000000
 Variable       Old X    -DE/DX   Delta X   Delta X   Delta X     New X
                                 (Linear)    (Quad)   (Total)
    R1        7.34197   0.00496   0.00000   0.00000   0.00000   7.34197
    R2        3.59467   0.00270   0.05864   0.00000   0.05864   3.65331
    R3        1.81878   0.00935   0.04257   0.00000   0.04257   1.86135
    R4        1.81878   0.00935   0.04257   0.00000   0.04257   1.86135
    R5        1.81346   0.00677   0.03296   0.00000   0.03296   1.84642
    R6        1.80972   0.00623   0.02618   0.00000   0.02618   1.83590
    A1        1.83260   0.00478   0.00000   0.00000   0.00000   1.83260
    A2        1.98474   0.01829   0.13402   0.00000   0.13395   2.11869
    A3        1.98475   0.01829   0.13405   0.00000   0.13393   2.11869
    A4        2.31365  -0.03659  -0.26815   0.00000  -0.26819   2.04546
    A5        2.00025   0.01852   0.16207   0.00000   0.16207   2.16232
    A6        2.01122   0.02068   0.18192   0.00000   0.18192   2.19315
    A7        2.27171  -0.03920  -0.34400   0.00000  -0.34400   1.92772
    D1        1.57548   0.00046   0.00846   0.00000   0.01082   1.58629
    D2       -1.57488  -0.00042  -0.00738   0.00000  -0.00974  -1.58462
    D3        3.14129  -0.00003  -0.00055   0.00000  -0.00054   3.14075
    D4       -0.00034  -0.00004  -0.00061   0.00000  -0.00062  -0.00095
    D5        3.13070  -0.00064  -0.01970   0.00000  -0.01724   3.11346
    D6        3.14155   0.00000  -0.00007   0.00000  -0.00006   3.14149
         Item               Value     Threshold  Converged?
 Maximum Force            0.039201     0.000450     NO 
 RMS     Force            0.016419     0.000300     NO 
 Maximum Displacement     0.301119     0.001800     NO 
 RMS     Displacement     0.127721     0.001200     NO 
 Predicted change in Energy=-2.670136D-02
 GradGradGradGradGradGradGradGradGradGradGradGradGradGradGradGradGradGrad

                          Input orientation:                          
 ---------------------------------------------------------------------
 Center     Atomic      Atomic             Coordinates (Angstroms)
 Number     Number       Type             X           Y           Z
 ---------------------------------------------------------------------
      1         29           0       -0.105900    0.000637   -0.014967
      2          8           0       -0.044726   -0.000010    3.869755
      3          8           0        1.753363   -0.000039   -0.544668
      4          1           0        2.055130   -0.000694   -1.473984
      5          1           0        2.514312    0.000304    0.059315
      6          1           0       -0.049329    0.840618    4.383097
      7          1           0       -0.048611   -0.840817    4.382807
 ---------------------------------------------------------------------
                    Distance matrix (angstroms):
                    1          2          3          4          5
     1  Cu   0.000000
     2  O    3.885203   0.000000
     3  O    1.933247   4.766577   0.000000
     4  H    2.607448   5.741510   0.977083   0.000000
     5  H    2.621265   4.590003   0.971514   1.600579   0.000000
     6  H    4.477916   0.984986   5.314064   6.280283   5.096418
     7  H    4.477917   0.984985   5.313571   6.279613   5.095945
                    6          7
     6  H    0.000000
     7  H    1.681436   0.000000
 Stoichiometry    CuH4O2(2+,2)
 Framework group  C1[X(CuH4O2)]
 Deg. of freedom    15
 Full point group                 C1      NOp   1
 Largest Abelian subgroup         C1      NOp   1
 Largest concise Abelian subgroup C1      NOp   1
                         Standard orientation:                         
 ---------------------------------------------------------------------
 Center     Atomic      Atomic             Coordinates (Angstroms)
 Number     Number       Type             X           Y           Z
 ---------------------------------------------------------------------
      1         29           0        0.604823    0.541970   -0.000008
      2          8           0       -3.193180   -0.276553   -0.000019
      3          8           0        1.487366   -1.178077    0.000034
      4          1           0        2.457717   -1.292579   -0.000636
      5          1           0        1.043591   -2.042312    0.000800
      6          1           0       -3.697481   -0.371893    0.840687
      7          1           0       -3.697174   -0.373302   -0.840748
 ---------------------------------------------------------------------
 Rotational constants (GHZ):     10.3189442      1.9645391      1.6658439
 Standard basis: 6-311G(d) (5D, 7F)
 There are   102 symmetry adapted cartesian basis functions of A   symmetry.
 There are    94 symmetry adapted basis functions of A   symmetry.
    94 basis functions,   165 primitive gaussians,   102 cartesian basis functions
    24 alpha electrons       23 beta electrons
       nuclear repulsion energy       142.3632550030 Hartrees.
 NAtoms=    7 NActive=    7 NUniq=    7 SFac= 1.00D+00 NAtFMM=   60 NAOKFM=F Big=F
 Integral buffers will be    131072 words long.
 Raffenetti 2 integral format.
 Two-electron integral symmetry is turned on.
 One-electron integrals computed using PRISM.
 NBasis=    94 RedAO= T EigKep=  9.37D-03  NBF=    94
 NBsUse=    94 1.00D-06 EigRej= -1.00D+00 NBFU=    94
 Initial guess from the checkpoint file:  "pescuh2o2.chk"
 B after Tr=     0.000000    0.000000    0.000000
         Rot=    0.999993    0.000028    0.000001   -0.003753 Ang=   0.43 deg.
 Initial guess <Sx>= 0.0000 <Sy>= 0.0000 <Sz>= 0.5000 <S**2>= 0.7523 S= 0.5012
 ExpMin= 4.08D-02 ExpMax= 3.37D+05 ExpMxC= 1.14D+04 IAcc=2 IRadAn=         4 AccDes= 0.00D+00
 Harris functional with IExCor=  402 and IRadAn=       4 diagonalized for initial guess.
 HarFok:  IExCor=  402 AccDes= 0.00D+00 IRadAn=         4 IDoV= 1 UseB2=F ITyADJ=14
 ICtDFT=  3500011 ScaDFX=  1.000000  1.000000  1.000000  1.000000
 FoFCou: FMM=F IPFlag=           0 FMFlag=      100000 FMFlg1=           0
         NFxFlg=           0 DoJE=T BraDBF=F KetDBF=T FulRan=T
         wScrn=  0.000000 ICntrl=     500 IOpCl=  0 I1Cent=   200000004 NGrid=           0
         NMat0=    1 NMatS0=      1 NMatT0=    0 NMatD0=    1 NMtDS0=    0 NMtDT0=    0
 Petite list used in FoFCou.
 Keep R1 and R2 ints in memory in canonical form, NReq=21961420.
 Requested convergence on RMS density matrix=1.00D-08 within  64 cycles.
 Requested convergence on MAX density matrix=1.00D-06.
 Requested convergence on             energy=1.00D-06.
 No special actions if energy rises.
 SCF Done:  E(UB3LYP) =  -1792.53939317     A.U. after   29 cycles
            NFock= 29  Conv=0.12D-08     -V/T= 2.0007
 <Sx>= 0.0000 <Sy>= 0.0000 <Sz>= 0.5000 <S**2>= 0.7523 S= 0.5012
 <L.S>= 0.000000000000E+00
 Annihilation of the first spin contaminant:
 S**2 before annihilation     0.7523,   after     0.7500
 QCSCF skips out because SCF is already converged.
 Calling FoFJK, ICntrl=      2127 FMM=F ISym2X=0 I1Cent= 0 IOpClX= 1 NMat=1 NMatS=1 NMatT=0.
 ***** Axes restored to original set *****
 -------------------------------------------------------------------
 Center     Atomic                   Forces (Hartrees/Bohr)
 Number     Number              X              Y              Z
 -------------------------------------------------------------------
      1       29           0.008035572    0.000026949   -0.005809881
      2        8           0.000379447   -0.000010486   -0.013870037
      3        8          -0.010234803   -0.000022895   -0.000399258
      4        1           0.001694638   -0.000017474    0.006545877
      5        1           0.000914599    0.000026700   -0.004821043
      6        1          -0.000398802   -0.013988849    0.009173889
      7        1          -0.000390651    0.013986055    0.009180453
 -------------------------------------------------------------------
 Cartesian Forces:  Max     0.013988849 RMS     0.006988458

 GradGradGradGradGradGradGradGradGradGradGradGradGradGradGradGradGradGrad
 Berny optimization.
 Using GEDIIS/GDIIS optimizer.
 FormGI is forming the generalized inverse of G from B-inverse, IUseBI=4.
 Internal  Forces:  Max     0.018761424 RMS     0.006497173
 Search for a local minimum.
 Step number   3 out of a maximum of  100 on scan point     1 out of    26
 All quantities printed in internal units (Hartrees-Bohrs-Radians)
 Mixed Optimization -- RFO/linear search
 Update second derivatives using D2CorX and points    2    3
 The second derivative matrix:
                          R1        R2        R3        R4        R5
           R1           0.00858
           R2           0.00019   0.19142
           R3           0.00029   0.00070   0.57451
           R4           0.00029   0.00070  -0.00230   0.57451
           R5           0.00022   0.00043  -0.00196  -0.00196   0.57516
           R6           0.00015  -0.00019  -0.00240  -0.00240  -0.00195
           A1           0.00001   0.00021   0.00034   0.00034   0.00026
           A2           0.00016  -0.00146  -0.00529  -0.00529  -0.00419
           A3           0.00016  -0.00145  -0.00529  -0.00529  -0.00419
           A4          -0.00032   0.00294   0.01063   0.01063   0.00842
           A5           0.00030   0.00046  -0.00287  -0.00287  -0.00240
           A6           0.00031   0.00009  -0.00390  -0.00390  -0.00321
           A7          -0.00061  -0.00055   0.00677   0.00677   0.00561
           D1           0.00000   0.00000   0.00001   0.00001   0.00000
           D2           0.00000   0.00000  -0.00001  -0.00001   0.00000
           D3           0.00000   0.00001   0.00001   0.00001   0.00001
           D4           0.00000   0.00001   0.00001   0.00001   0.00001
           D5          -0.00001  -0.00007  -0.00005  -0.00005  -0.00004
           D6           0.00000   0.00000   0.00000   0.00000   0.00000
                          R6        A1        A2        A3        A4
           R6           0.57483
           A1           0.00018   0.25001
           A2          -0.00379   0.00018   0.15360
           A3          -0.00379   0.00018  -0.00641   0.15359
           A4           0.00760  -0.00037   0.01283   0.01283   0.13431
           A5          -0.00276   0.00034  -0.00583  -0.00583   0.01169
           A6          -0.00345   0.00036  -0.00691  -0.00691   0.01386
           A7           0.00621  -0.00071   0.01274   0.01274  -0.02555
           D1           0.00000   0.00000   0.00000   0.00000   0.00000
           D2           0.00000   0.00000   0.00000   0.00000   0.00000
           D3           0.00001   0.00000   0.00001   0.00001  -0.00002
           D4           0.00001   0.00000   0.00001   0.00001  -0.00002
           D5          -0.00001  -0.00001   0.00004   0.00004  -0.00008
           D6           0.00000   0.00000   0.00000   0.00000   0.00000
                          A5        A6        A7        D1        D2
           A5           0.15653
           A6          -0.00459   0.15412
           A7           0.00805   0.01047   0.14148
           D1           0.00001   0.00001  -0.00001   0.00230
           D2          -0.00001  -0.00001   0.00002   0.00000   0.00230
           D3           0.00001   0.00001  -0.00002   0.00000   0.00000
           D4           0.00001   0.00002  -0.00003   0.00000   0.00000
           D5          -0.00003  -0.00002   0.00005   0.00000   0.00000
           D6           0.00000   0.00000   0.00000   0.00000   0.00000
                          D3        D4        D5        D6
           D3           0.03612
           D4           0.00000   0.03612
           D5           0.00000   0.00000   0.01690
           D6           0.00000   0.00000   0.00000   0.01690
 ITU=  0  1  0
 Use linear search instead of GDIIS.
     Eigenvalues ---    0.00230   0.01178   0.02457   0.03612   0.08646
     Eigenvalues ---    0.15999   0.16000   0.16520   0.19177   0.56981
     Eigenvalues ---    0.57681   0.57681   0.577181000.000001000.00000
     Eigenvalues --- 1000.000001000.000001000.000001000.00000
 RFO step:  Lambda=-3.04189231D-03 EMin= 2.29999990D-03
 Quartic linear search produced a step of  0.25750.
 Iteration  1 RMS(Cart)=  0.04594717 RMS(Int)=  0.00206855
 Iteration  2 RMS(Cart)=  0.00186018 RMS(Int)=  0.00057164
 Iteration  3 RMS(Cart)=  0.00000028 RMS(Int)=  0.00057164
 Iteration  1 RMS(Cart)=  0.00000000 RMS(Int)=  0.00000000
 Variable       Old X    -DE/DX   Delta X   Delta X   Delta X     New X
                                 (Linear)    (Quad)   (Total)
    R1        7.34197   0.00447   0.00000   0.00000   0.00000   7.34197
    R2        3.65331  -0.00769   0.01510  -0.05279  -0.03770   3.61561
    R3        1.86135  -0.00716   0.01096  -0.01816  -0.00720   1.85415
    R4        1.86135  -0.00716   0.01096  -0.01816  -0.00720   1.85415
    R5        1.84642  -0.00570   0.00849  -0.01421  -0.00572   1.84070
    R6        1.83590  -0.00228   0.00674  -0.00678  -0.00004   1.83585
    A1        1.83260   0.00422   0.00000   0.00000   0.00000   1.83260
    A2        2.11869   0.00937   0.03449   0.04440   0.07878   2.19747
    A3        2.11869   0.00938   0.03449   0.04450   0.07882   2.19750
    A4        2.04546  -0.01876  -0.06906  -0.08951  -0.15865   1.88681
    A5        2.16232   0.00182   0.04173  -0.01371   0.02803   2.19035
    A6        2.19315   0.00308   0.04685  -0.00723   0.03962   2.23276
    A7        1.92772  -0.00490  -0.08858   0.02093  -0.06765   1.86007
    D1        1.58629   0.00042   0.00278   0.01561   0.01974   1.60603
    D2       -1.58462  -0.00039  -0.00251  -0.01091  -0.01476  -1.59938
    D3        3.14075  -0.00004  -0.00014  -0.00087  -0.00101   3.13975
    D4       -0.00095  -0.00004  -0.00016  -0.00104  -0.00121  -0.00216
    D5        3.11346  -0.00035  -0.00444  -0.02339  -0.02624   3.08722
    D6        3.14149   0.00000  -0.00002  -0.00015  -0.00016   3.14133
         Item               Value     Threshold  Converged?
 Maximum Force            0.018761     0.000450     NO 
 RMS     Force            0.006705     0.000300     NO 
 Maximum Displacement     0.087958     0.001800     NO 
 RMS     Displacement     0.046229     0.001200     NO 
 Predicted change in Energy=-3.016975D-03
 GradGradGradGradGradGradGradGradGradGradGradGradGradGradGradGradGradGrad

                          Input orientation:                          
 ---------------------------------------------------------------------
 Center     Atomic      Atomic             Coordinates (Angstroms)
 Number     Number       Type             X           Y           Z
 ---------------------------------------------------------------------
      1         29           0       -0.098597    0.001892   -0.034045
      2          8           0       -0.043729    0.000066    3.850770
      3          8           0        1.742329   -0.000147   -0.555294
      4          1           0        2.070494   -0.001600   -1.472403
      5          1           0        2.525655    0.000281    0.019332
      6          1           0       -0.062617    0.794073    4.426880
      7          1           0       -0.059295   -0.794566    4.426115
 ---------------------------------------------------------------------
                    Distance matrix (angstroms):
                    1          2          3          4          5
     1  Cu   0.000000
     2  O    3.885203   0.000000
     3  O    1.913299   4.754304   0.000000
     4  H    2.602661   5.727662   0.974055   0.000000
     5  H    2.624795   4.613204   0.971492   1.559632   0.000000
     6  H    4.530860   0.981176   5.358234   6.323354   5.172595
     7  H    4.530885   0.981175   5.356435   6.321180   5.170443
                    6          7
     6  H    0.000000
     7  H    1.588643   0.000000
 Stoichiometry    CuH4O2(2+,2)
 Framework group  C1[X(CuH4O2)]
 Deg. of freedom    15
 Full point group                 C1      NOp   1
 Largest Abelian subgroup         C1      NOp   1
 Largest concise Abelian subgroup C1      NOp   1
                         Standard orientation:                         
 ---------------------------------------------------------------------
 Center     Atomic      Atomic             Coordinates (Angstroms)
 Number     Number       Type             X           Y           Z
 ---------------------------------------------------------------------
      1         29           0        0.610040    0.537749   -0.000050
      2          8           0       -3.189973   -0.271391   -0.000018
      3          8           0        1.479270   -1.166702    0.000148
      4          1           0        2.442682   -1.310295   -0.001286
      5          1           0        1.067910   -2.046802    0.001893
      6          1           0       -3.758611   -0.363756    0.794227
      7          1           0       -3.757515   -0.369105   -0.794406
 ---------------------------------------------------------------------
 Rotational constants (GHZ):     10.5025948      1.9614322      1.6666299
 Standard basis: 6-311G(d) (5D, 7F)
 There are   102 symmetry adapted cartesian basis functions of A   symmetry.
 There are    94 symmetry adapted basis functions of A   symmetry.
    94 basis functions,   165 primitive gaussians,   102 cartesian basis functions
    24 alpha electrons       23 beta electrons
       nuclear repulsion energy       143.0205796868 Hartrees.
 NAtoms=    7 NActive=    7 NUniq=    7 SFac= 1.00D+00 NAtFMM=   60 NAOKFM=F Big=F
 Integral buffers will be    131072 words long.
 Raffenetti 2 integral format.
 Two-electron integral symmetry is turned on.
 One-electron integrals computed using PRISM.
 NBasis=    94 RedAO= T EigKep=  9.37D-03  NBF=    94
 NBsUse=    94 1.00D-06 EigRej= -1.00D+00 NBFU=    94
 Initial guess from the checkpoint file:  "pescuh2o2.chk"
 B after Tr=     0.000000    0.000000    0.000000
         Rot=    1.000000    0.000118    0.000004    0.000967 Ang=   0.11 deg.
 Initial guess <Sx>= 0.0000 <Sy>= 0.0000 <Sz>= 0.5000 <S**2>= 0.7523 S= 0.5011
 ExpMin= 4.08D-02 ExpMax= 3.37D+05 ExpMxC= 1.14D+04 IAcc=2 IRadAn=         4 AccDes= 0.00D+00
 Harris functional with IExCor=  402 and IRadAn=       4 diagonalized for initial guess.
 HarFok:  IExCor=  402 AccDes= 0.00D+00 IRadAn=         4 IDoV= 1 UseB2=F ITyADJ=14
 ICtDFT=  3500011 ScaDFX=  1.000000  1.000000  1.000000  1.000000
 FoFCou: FMM=F IPFlag=           0 FMFlag=      100000 FMFlg1=           0
         NFxFlg=           0 DoJE=T BraDBF=F KetDBF=T FulRan=T
         wScrn=  0.000000 ICntrl=     500 IOpCl=  0 I1Cent=   200000004 NGrid=           0
         NMat0=    1 NMatS0=      1 NMatT0=    0 NMatD0=    1 NMtDS0=    0 NMtDT0=    0
 Petite list used in FoFCou.
 Keep R1 and R2 ints in memory in canonical form, NReq=21961449.
 Requested convergence on RMS density matrix=1.00D-08 within  64 cycles.
 Requested convergence on MAX density matrix=1.00D-06.
 Requested convergence on             energy=1.00D-06.
 No special actions if energy rises.
 SCF Done:  E(UB3LYP) =  -1792.54237544     A.U. after   30 cycles
            NFock= 30  Conv=0.82D-08     -V/T= 2.0007
 <Sx>= 0.0000 <Sy>= 0.0000 <Sz>= 0.5000 <S**2>= 0.7523 S= 0.5011
 <L.S>= 0.000000000000E+00
 Annihilation of the first spin contaminant:
 S**2 before annihilation     0.7523,   after     0.7500
 QCSCF skips out because SCF is already converged.
 Calling FoFJK, ICntrl=      2127 FMM=F ISym2X=0 I1Cent= 0 IOpClX= 1 NMat=1 NMatS=1 NMatT=0.
 ***** Axes restored to original set *****
 -------------------------------------------------------------------
 Center     Atomic                   Forces (Hartrees/Bohr)
 Number     Number              X              Y              Z
 -------------------------------------------------------------------
      1       29           0.004609381    0.000034521   -0.004416562
      2        8          -0.000096734   -0.000015979    0.001990662
      3        8           0.000805653   -0.000055359   -0.001870745
      4        1          -0.003128798   -0.000012629    0.000145629
      5        1          -0.001846101    0.000049006    0.001881111
      6        1          -0.000178348   -0.001669838    0.001133242
      7        1          -0.000165053    0.001670278    0.001136664
 -------------------------------------------------------------------
 Cartesian Forces:  Max     0.004609381 RMS     0.001875291

 GradGradGradGradGradGradGradGradGradGradGradGradGradGradGradGradGradGrad
 Berny optimization.
 Using GEDIIS/GDIIS optimizer.
 FormGI is forming the generalized inverse of G from B-inverse, IUseBI=4.
 Internal  Forces:  Max     0.004249722 RMS     0.002038793
 Search for a local minimum.
 Step number   4 out of a maximum of  100 on scan point     1 out of    26
 All quantities printed in internal units (Hartrees-Bohrs-Radians)
 Mixed Optimization -- RFO/linear search
 Update second derivatives using D2CorX and points    3    4
 DE= -2.98D-03 DEPred=-3.02D-03 R= 9.88D-01
 TightC=F SS=  1.41D+00  RLast= 2.18D-01 DXNew= 8.4853D-01 6.5298D-01
 Trust test= 9.88D-01 RLast= 2.18D-01 DXMaxT set to 6.53D-01
 The second derivative matrix:
                          R1        R2        R3        R4        R5
           R1           0.00859
           R2           0.00023   0.18112
           R3           0.00020  -0.00668   0.57158
           R4           0.00020  -0.00669  -0.00523   0.57158
           R5           0.00017  -0.00592  -0.00512  -0.00512   0.57206
           R6           0.00013  -0.00277  -0.00364  -0.00364  -0.00318
           A1           0.00001   0.00035   0.00037   0.00037   0.00030
           A2           0.00031   0.00643  -0.00296  -0.00296  -0.00128
           A3           0.00031   0.00644  -0.00295  -0.00294  -0.00127
           A4          -0.00061  -0.01309   0.00571   0.00571   0.00241
           A5           0.00044  -0.00075  -0.00631  -0.00631  -0.00466
           A6           0.00046   0.00020  -0.00656  -0.00656  -0.00475
           A7          -0.00090   0.00056   0.01287   0.01287   0.00941
           D1           0.00001  -0.00011  -0.00027  -0.00027  -0.00018
           D2          -0.00001   0.00013   0.00028   0.00028   0.00019
           D3           0.00000  -0.00004  -0.00003  -0.00003  -0.00003
           D4           0.00000  -0.00006  -0.00006  -0.00006  -0.00004
           D5           0.00000  -0.00062  -0.00045  -0.00045  -0.00038
           D6           0.00000  -0.00001  -0.00002  -0.00002  -0.00001
                          R6        A1        A2        A3        A4
           R6           0.57434
           A1           0.00019   0.25001
           A2          -0.00267   0.00017   0.15222
           A3          -0.00266   0.00017  -0.00780   0.15219
           A4           0.00528  -0.00033   0.01586   0.01589   0.12767
           A5          -0.00373   0.00043  -0.00129  -0.00129   0.00263
           A6          -0.00413   0.00043  -0.00316  -0.00317   0.00643
           A7           0.00786  -0.00086   0.00445   0.00445  -0.00906
           D1          -0.00008   0.00001   0.00036   0.00036  -0.00071
           D2           0.00008  -0.00001  -0.00037  -0.00037   0.00075
           D3          -0.00001   0.00000   0.00006   0.00006  -0.00012
           D4          -0.00001   0.00000   0.00009   0.00009  -0.00019
           D5          -0.00015   0.00000   0.00047   0.00047  -0.00095
           D6           0.00000   0.00000   0.00002   0.00002  -0.00005
                          A5        A6        A7        D1        D2
           A5           0.15919
           A6          -0.00160   0.15728
           A7           0.00241   0.00432   0.15327
           D1           0.00020   0.00023  -0.00043   0.00231
           D2          -0.00020  -0.00023   0.00043  -0.00001   0.00231
           D3           0.00002   0.00002  -0.00004   0.00000   0.00000
           D4           0.00003   0.00004  -0.00007   0.00000   0.00000
           D5          -0.00009  -0.00001   0.00011  -0.00001   0.00001
           D6           0.00001   0.00001  -0.00002   0.00000   0.00000
                          D3        D4        D5        D6
           D3           0.03612
           D4           0.00000   0.03612
           D5           0.00000   0.00000   0.01687
           D6           0.00000   0.00000   0.00000   0.01690
 ITU=  1  0  1  0
 Use linear search instead of GDIIS.
     Eigenvalues ---    0.00230   0.01102   0.02506   0.03612   0.10395
     Eigenvalues ---    0.15178   0.15995   0.16012   0.18471   0.56138
     Eigenvalues ---    0.57661   0.57681   0.577171000.000001000.00000
     Eigenvalues --- 1000.000001000.000001000.000001000.00000
 RFO step:  Lambda=-2.63136799D-04 EMin= 2.29997709D-03
 Quartic linear search produced a step of  0.07140.
 Iteration  1 RMS(Cart)=  0.01060364 RMS(Int)=  0.00009652
 Iteration  2 RMS(Cart)=  0.00006691 RMS(Int)=  0.00006388
 Iteration  3 RMS(Cart)=  0.00000000 RMS(Int)=  0.00006388
 Iteration  1 RMS(Cart)=  0.00000000 RMS(Int)=  0.00000000
 Variable       Old X    -DE/DX   Delta X   Delta X   Delta X     New X
                                 (Linear)    (Quad)   (Total)
    R1        7.34197   0.00425   0.00000   0.00000   0.00000   7.34197
    R2        3.61561  -0.00405  -0.00269  -0.02199  -0.02468   3.59093
    R3        1.85415  -0.00068  -0.00051  -0.00144  -0.00196   1.85219
    R4        1.85415  -0.00068  -0.00051  -0.00145  -0.00196   1.85219
    R5        1.84070  -0.00119  -0.00041  -0.00237  -0.00278   1.83791
    R6        1.83585  -0.00037   0.00000  -0.00098  -0.00098   1.83487
    A1        1.83260   0.00407   0.00000   0.00000   0.00000   1.83260
    A2        2.19747   0.00116   0.00562   0.00395   0.00953   2.20700
    A3        2.19750   0.00118   0.00563   0.00405   0.00963   2.20713
    A4        1.88681  -0.00235  -0.01133  -0.00875  -0.02012   1.86668
    A5        2.19035  -0.00195   0.00200  -0.01472  -0.01272   2.17763
    A6        2.23276  -0.00142   0.00283  -0.01182  -0.00900   2.22377
    A7        1.86007   0.00337  -0.00483   0.02655   0.02172   1.88179
    D1        1.60603   0.00015   0.00141   0.01376   0.01531   1.62135
    D2       -1.59938  -0.00012  -0.00105  -0.00348  -0.00468  -1.60406
    D3        3.13975  -0.00003  -0.00007  -0.00084  -0.00091   3.13884
    D4       -0.00216  -0.00005  -0.00009  -0.00159  -0.00167  -0.00383
    D5        3.08722  -0.00015  -0.00187  -0.01437  -0.01607   3.07115
    D6        3.14133  -0.00002  -0.00001  -0.00062  -0.00064   3.14069
         Item               Value     Threshold  Converged?
 Maximum Force            0.004046     0.000450     NO 
 RMS     Force            0.001615     0.000300     NO 
 Maximum Displacement     0.023661     0.001800     NO 
 RMS     Displacement     0.010613     0.001200     NO 
 Predicted change in Energy=-1.480775D-04
 GradGradGradGradGradGradGradGradGradGradGradGradGradGradGradGradGradGrad

                          Input orientation:                          
 ---------------------------------------------------------------------
 Center     Atomic      Atomic             Coordinates (Angstroms)
 Number     Number       Type             X           Y           Z
 ---------------------------------------------------------------------
      1         29           0       -0.086076    0.004173   -0.039645
      2          8           0       -0.037246    0.000276    3.845249
      3          8           0        1.743079   -0.000504   -0.554498
      4          1           0        2.060497   -0.002715   -1.473822
      5          1           0        2.519888   -0.000307    0.028046
[...]
           A6         125.19986 125.24902 125.19853 125.14526 125.12541
           A7         109.49376 109.49082 109.42038 109.33779 109.25717
           D1         -72.48832 -73.78861 -76.02660 -79.06838 -82.16827
           D2          72.52536  73.80690  76.08325  79.03690  82.27313
           D3         -92.02482 -89.37497 -87.31426 -86.08673 -85.48437
           D4          92.05591  89.39780  87.36796  86.04263  85.53139
           D5         149.19752 151.47058 155.50699 160.85503 166.46704
           D6        -176.46343 178.93688 175.39403 173.18479 172.22434
                          21        22        23        24        25
     Eigenvalues --  **************************************************
           R1           1.88520   1.78520   1.68520   1.58520   1.48520
           R2           1.87452   1.88004   1.88762   1.89585   1.90530
           R3           0.97511   0.97672   0.97897   0.98206   0.98645
           R4           0.97511   0.97672   0.97896   0.98206   0.98646
           R5           0.97526   0.97500   0.97469   0.97440   0.97421
           R6           0.97526   0.97500   0.97469   0.97440   0.97421
           A1         105.00000 105.00000 105.00000 105.00000 105.00000
           A2         125.11150 125.46256 125.83587 126.26402 126.79249
           A3         125.12032 125.47250 125.83301 126.26667 126.79107
           A4         109.16625 108.67979 107.97278 107.01327 105.74768
           A5         125.15133 125.26866 125.40210 125.50377 125.52849
           A6         125.14291 125.27230 125.40121 125.50392 125.52971
           A7         109.13354 109.07730 109.02538 108.97508 108.89846
           D1         -85.08054 -86.02819 -86.15822 -85.62260 -84.63643
           D2          85.04858  86.03074  86.13097  85.60679  84.63253
           D3         -85.16467 -86.11944 -87.35513 -89.15758 -91.33830
           D4          85.20660  86.00346  87.35936  89.16409  91.32528
           D5         171.46303 173.17897 173.43340 172.61326 171.08740
           D6         171.67593 173.20075 175.44442 178.55525-177.70905
                          26
     Eigenvalues --  **********
           R1           1.38520
           R2           1.91785
           R3           0.99305
           R4           0.99305
           R5           0.97416
           R6           0.97416
           A1         105.00000
           A2         127.45268
           A3         127.45378
           A4         104.06077
           A5         125.44465
           A6         125.44783
           A7         108.78149
           D1         -83.20872
           D2          83.27869
           D3         -93.61789
           D4          93.68389
           D5         168.97613
           D6        -173.72154
                          Input orientation:                          
 ---------------------------------------------------------------------
 Center     Atomic      Atomic             Coordinates (Angstroms)
 Number     Number       Type             X           Y           Z
 ---------------------------------------------------------------------
      1         29           0       -0.022362    0.596316    1.309004
      2          8           0        0.198345    0.243817    2.630299
      3          8           0        1.442844   -0.171952    0.338913
      4          1           0        2.274796    0.283949    0.117573
      5          1           0        1.436807   -1.042928   -0.097372
      6          1           0       -0.041708   -0.610772    3.075495
      7          1           0        0.785519    0.701571    3.287443
 ---------------------------------------------------------------------
                    Distance matrix (angstroms):
                    1          2          3          4          5
     1  Cu   0.000000
     2  O    1.385203   0.000000
     3  O    1.917848   2.640471   0.000000
     4  H    2.606533   3.259916   0.974156   0.000000
     5  H    2.606566   3.260321   0.974157   1.583991   0.000000
     6  H    2.139609   0.993050   3.144096   3.862126   3.527018
     7  H    2.139620   0.993051   3.144670   3.527100   3.863215
                    6          7
     6  H    0.000000
     7  H    1.565717   0.000000
 Stoichiometry    CuH4O2(2+,2)
 Framework group  C1[X(CuH4O2)]
 Deg. of freedom    15
 Full point group                 C1      NOp   1
 Largest Abelian subgroup         C1      NOp   1
 Largest concise Abelian subgroup C1      NOp   1
                         Standard orientation:                         
 ---------------------------------------------------------------------
 Center     Atomic      Atomic             Coordinates (Angstroms)
 Number     Number       Type             X           Y           Z
 ---------------------------------------------------------------------
      1         29           0       -0.192825    0.406124    0.000006
      2          8           0       -1.054377   -0.678550   -0.000050
      3          8           0        1.566490   -0.357388    0.000018
      4          1           0        2.104641   -0.536378    0.792064
      5          1           0        2.105079   -0.535506   -0.791928
      6          1           0       -1.356955   -1.209368   -0.782882
      7          1           0       -1.357749   -1.208839    0.782834
 ---------------------------------------------------------------------
 Rotational constants (GHZ):     19.8367507      6.7847233      5.3217185

 **********************************************************************

            Population analysis using the SCF density.

 **********************************************************************

 Orbital symmetries:
 Alpha Orbitals:
       Occupied  (A) (A) (A) (A) (A) (A) (A) (A) (A) (A) (A) (A)
                 (A) (A) (A) (A) (A) (A) (A) (A) (A) (A) (A) (A)
       Virtual   (A) (A) (A) (A) (A) (A) (A) (A) (A) (A) (A) (A)
                 (A) (A) (A) (A) (A) (A) (A) (A) (A) (A) (A) (A)
                 (A) (A) (A) (A) (A) (A) (A) (A) (A) (A) (A) (A)
                 (A) (A) (A) (A) (A) (A) (A) (A) (A) (A) (A) (A)
                 (A) (A) (A) (A) (A) (A) (A) (A) (A) (A) (A) (A)
                 (A) (A) (A) (A) (A) (A) (A) (A) (A) (A)
 Beta  Orbitals:
       Occupied  (A) (A) (A) (A) (A) (A) (A) (A) (A) (A) (A) (A)
                 (A) (A) (A) (A) (A) (A) (A) (A) (A) (A) (A)
       Virtual   (A) (A) (A) (A) (A) (A) (A) (A) (A) (A) (A) (A)
                 (A) (A) (A) (A) (A) (A) (A) (A) (A) (A) (A) (A)
                 (A) (A) (A) (A) (A) (A) (A) (A) (A) (A) (A) (A)
                 (A) (A) (A) (A) (A) (A) (A) (A) (A) (A) (A) (A)
                 (A) (A) (A) (A) (A) (A) (A) (A) (A) (A) (A) (A)
                 (A) (A) (A) (A) (A) (A) (A) (A) (A) (A) (A)
 The electronic state is 2-A.
 Alpha  occ. eigenvalues -- -323.58161 -39.39998 -34.63383 -34.61794 -34.60172
 Alpha  occ. eigenvalues --  -19.69549 -19.60389  -4.94052  -3.48153  -3.42979
 Alpha  occ. eigenvalues --   -3.39763  -1.60949  -1.48721  -1.13765  -1.12174
 Alpha  occ. eigenvalues --   -1.01542  -1.00748  -0.96592  -0.88708  -0.88141
 Alpha  occ. eigenvalues --   -0.86809  -0.83258  -0.80606  -0.78422
 Alpha virt. eigenvalues --   -0.49382  -0.38017  -0.33360  -0.33068  -0.26429
 Alpha virt. eigenvalues --   -0.20212  -0.18617  -0.03404  -0.01342   0.01601
 Alpha virt. eigenvalues --    0.13105   0.20056   0.28833   0.31390   0.41182
 Alpha virt. eigenvalues --    0.42032   0.59631   0.68477   0.83001   0.89997
 Alpha virt. eigenvalues --    0.95586   0.97122   1.03493   1.14582   1.18287
 Alpha virt. eigenvalues --    1.48146   1.54038   1.60406   1.62057   1.64200
 Alpha virt. eigenvalues --    2.13934   2.17252   2.23404   2.28012   2.38123
 Alpha virt. eigenvalues --    2.42815   2.54741   2.65458   2.68588   2.94445
 Alpha virt. eigenvalues --    3.14039   3.38047   3.38876   3.39215   3.39845
 Alpha virt. eigenvalues --    3.57850   3.62738   3.71039   4.25763   4.31299
 Alpha virt. eigenvalues --    4.43004   4.47823   4.54001   5.30474   6.62012
 Alpha virt. eigenvalues --    6.62345   6.70413   6.73698   6.77556   8.87554
 Alpha virt. eigenvalues --    8.96929   9.50799  31.54134  42.26194  42.32191
 Alpha virt. eigenvalues --   42.71071  49.22578  49.25229 183.56696 978.83532
  Beta  occ. eigenvalues -- -323.58122 -39.37928 -34.60874 -34.59850 -34.59567
  Beta  occ. eigenvalues --  -19.69090 -19.60034  -4.89907  -3.41252  -3.38364
  Beta  occ. eigenvalues --   -3.38324  -1.59687  -1.48031  -1.11563  -1.10527
  Beta  occ. eigenvalues --   -1.00405  -0.98634  -0.93615  -0.86756  -0.86109
  Beta  occ. eigenvalues --   -0.84543  -0.81474  -0.78069
  Beta virt. eigenvalues --   -0.62205  -0.48501  -0.37711  -0.33173  -0.32816
  Beta virt. eigenvalues --   -0.26250  -0.20004  -0.18365  -0.03076  -0.01124
  Beta virt. eigenvalues --    0.01764   0.14293   0.21522   0.29169   0.31884
  Beta virt. eigenvalues --    0.42050   0.42272   0.60510   0.68889   0.83696
  Beta virt. eigenvalues --    0.91308   0.96887   0.99750   1.04344   1.15992
  Beta virt. eigenvalues --    1.19040   1.50684   1.54337   1.60742   1.62375
  Beta virt. eigenvalues --    1.64400   2.15564   2.18259   2.24634   2.28364
  Beta virt. eigenvalues --    2.39245   2.43925   2.55807   2.66276   2.68981
  Beta virt. eigenvalues --    2.95140   3.16118   3.38594   3.39564   3.41318
  Beta virt. eigenvalues --    3.41831   3.60687   3.65214   3.72643   4.26709
  Beta virt. eigenvalues --    4.32037   4.43552   4.48993   4.54305   5.32379
  Beta virt. eigenvalues --    6.63689   6.64035   6.72068   6.75221   6.85182
  Beta virt. eigenvalues --    8.88587   8.99852   9.54622  31.56881  42.27038
  Beta virt. eigenvalues --   42.34544  42.74434  49.23049  49.25602 183.57760
  Beta virt. eigenvalues --  978.83768
          Condensed to atoms (all electrons):
               1          2          3          4          5          6
     1  Cu  27.434101   0.000895   0.070920  -0.003564  -0.003561  -0.010922
     2  O    0.000895   8.421774  -0.001712   0.001278   0.001275   0.230221
     3  O    0.070920  -0.001712   8.346118   0.248361   0.248359   0.002272
     4  H   -0.003564   0.001278   0.248361   0.215400  -0.016685  -0.000060
     5  H   -0.003561   0.001275   0.248359  -0.016685   0.215394   0.000173
     6  H   -0.010922   0.230221   0.002272  -0.000060   0.000173   0.209633
     7  H   -0.010912   0.230214   0.002266   0.000173  -0.000060  -0.014957
               7
     1  Cu  -0.010912
     2  O    0.230214
     3  O    0.002266
     4  H    0.000173
     5  H   -0.000060
     6  H   -0.014957
     7  H    0.209634
          Atomic-Atomic Spin Densities.
               1          2          3          4          5          6
     1  Cu   0.790776  -0.078027  -0.032340   0.000975   0.000975   0.000712
     2  O   -0.078027   0.320469  -0.021145   0.000481   0.000480  -0.001161
     3  O   -0.032340  -0.021145   0.147173  -0.001314  -0.001313   0.000044
     4  H    0.000975   0.000481  -0.001314   0.002391   0.000901  -0.000003
     5  H    0.000975   0.000480  -0.001313   0.000901   0.002398  -0.000015
     6  H    0.000712  -0.001161   0.000044  -0.000003  -0.000015  -0.001325
     7  H    0.000712  -0.001158   0.000044  -0.000015  -0.000003   0.000884
               7
     1  Cu   0.000712
     2  O   -0.001158
     3  O    0.000044
     4  H   -0.000015
     5  H   -0.000003
     6  H    0.000884
     7  H   -0.001315
 Mulliken charges and spin densities:
               1          2
     1  Cu   1.523043   0.683784
     2  O   -0.883944   0.219939
     3  O   -0.916584   0.091149
     4  H    0.555098   0.003417
     5  H    0.555105   0.003424
     6  H    0.583640  -0.000863
     7  H    0.583643  -0.000850
 Sum of Mulliken charges =   2.00000   1.00000
 Mulliken charges and spin densities with hydrogens summed into heavy atoms:
               1          2
     1  Cu   1.523043   0.683784
     2  O    0.283339   0.218226
     3  O    0.193618   0.097990
 Electronic spatial extent (au):  <R**2>=            227.0996
 Charge=              2.0000 electrons
 Dipole moment (field-independent basis, Debye):
    X=              0.1183    Y=             -2.1458    Z=              0.0004  Tot=              2.1491
 Quadrupole moment (field-independent basis, Debye-Ang):
   XX=             -1.9189   YY=            -12.5522   ZZ=            -14.2455
   XY=              1.9806   XZ=             -0.0024   YZ=             -0.0010
 Traceless Quadrupole moment (field-independent basis, Debye-Ang):
   XX=              7.6533   YY=             -2.9801   ZZ=             -4.6733
   XY=              1.9806   XZ=             -0.0024   YZ=             -0.0010
 Octapole moment (field-independent basis, Debye-Ang**2):
  XXX=             18.7621  YYY=              3.4983  ZZZ=              0.0008  XYY=             -9.4867
  XXY=            -15.2337  XXZ=              0.0022  XZZ=              0.5748  YZZ=             -2.4856
  YYZ=             -0.0007  XYZ=             -0.0038
 Hexadecapole moment (field-independent basis, Debye-Ang**3):
 XXXX=            -68.1092 YYYY=            -34.9647 ZZZZ=            -11.9234 XXXY=             -9.5079
 XXXZ=             -0.0220 YYYX=              9.9186 YYYZ=              0.0034 ZZZX=             -0.0013
 ZZZY=             -0.0010 XXYY=            -16.2878 XXZZ=             -7.7234 YYZZ=             -4.4022
 XXYZ=             -0.0113 YYXZ=              0.0057 ZZXY=              1.4259
 N-N= 2.153424898949D+02 E-N=-4.691047930503D+03  KE= 1.792543514606D+03
                          Isotropic Fermi Contact Couplings
        Atom                 a.u.       MegaHertz       Gauss      10(-4) cm-1
     1  Cu(63)             0.27699     328.54314     117.23236     109.59019
     2  O(17)              0.12658     -76.73012     -27.37921     -25.59441
     3  O(17)              0.19466    -118.00272     -42.10630     -39.36147
     4  H(1)               0.00284      12.68049       4.52471       4.22976
     5  H(1)               0.00284      12.70296       4.53273       4.23725
     6  H(1)               0.00156       6.98144       2.49115       2.32876
     7  H(1)               0.00157       7.01547       2.50329       2.34011
 --------------------------------------------------------
       Center         ----  Spin Dipole Couplings  ----
                      3XX-RR        3YY-RR        3ZZ-RR
 --------------------------------------------------------
     1   Atom        1.233917      2.401364     -3.635281
     2   Atom        0.630480     -0.281613     -0.348867
     3   Atom        0.427638     -0.212114     -0.215524
     4   Atom        0.007626     -0.015177      0.007551
     5   Atom        0.007637     -0.015191      0.007553
     6   Atom       -0.008732     -0.001527      0.010259
     7   Atom       -0.008717     -0.001563      0.010280
 --------------------------------------------------------
                        XY            XZ            YZ
 --------------------------------------------------------
     1   Atom        1.352134     -0.000156     -0.000688
     2   Atom        0.171090      0.000369      0.000062
     3   Atom       -0.025741      0.000112     -0.000006
     4   Atom       -0.007679      0.014959     -0.006363
     5   Atom       -0.007666     -0.014969      0.006335
     6   Atom        0.018764      0.010367      0.028202
     7   Atom        0.018782     -0.010397     -0.028178
 --------------------------------------------------------


 ---------------------------------------------------------------------------------
              Anisotropic Spin Dipole Couplings in Principal Axis System
 ---------------------------------------------------------------------------------

       Atom             a.u.   MegaHertz   Gauss  10(-4) cm-1        Axes

              Baa    -3.6353  -514.689  -183.654  -171.682  0.0000  0.0001  1.0000
     1 Cu(63) Bbb     0.3449    48.830    17.424    16.288  0.8356 -0.5494  0.0001
              Bcc     3.2904   465.859   166.230   155.394  0.5494  0.8356 -0.0001
 
              Baa    -0.3489    25.244     9.008     8.420 -0.0004  0.0001  1.0000
     2 O(17)  Bbb    -0.3126    22.623     8.072     7.546 -0.1785  0.9839 -0.0001
              Bcc     0.6615   -47.867   -17.080   -15.967  0.9839  0.1785  0.0004
 
              Baa    -0.2155    15.595     5.565     5.202 -0.0001  0.0007  1.0000
     3 O(17)  Bbb    -0.2131    15.423     5.503     5.145  0.0401  0.9992 -0.0007
              Bcc     0.4287   -31.018   -11.068   -10.347  0.9992 -0.0401  0.0002
 
              Baa    -0.0177    -9.448    -3.371    -3.152  0.2296  0.9673  0.1077
     4 H(1)   Bbb    -0.0073    -3.892    -1.389    -1.298 -0.6843  0.0818  0.7246
              Bcc     0.0250    13.341     4.760     4.450  0.6921 -0.2401  0.6807
 
              Baa    -0.0177    -9.448    -3.371    -3.152  0.2297  0.9674 -0.1065
     5 H(1)   Bbb    -0.0073    -3.893    -1.389    -1.299  0.6840 -0.0826  0.7248
              Bcc     0.0250    13.341     4.760     4.450  0.6923 -0.2393 -0.6807
 
              Baa    -0.0291   -15.502    -5.531    -5.171 -0.4918  0.7637 -0.4182
     6 H(1)   Bbb    -0.0122    -6.504    -2.321    -2.169  0.7855  0.1820 -0.5915
              Bcc     0.0412    22.005     7.852     7.340  0.3756  0.6194  0.6894
 
              Baa    -0.0291   -15.501    -5.531    -5.171 -0.4923  0.7640  0.4172
     7 H(1)   Bbb    -0.0122    -6.504    -2.321    -2.170  0.7849  0.1825  0.5921
              Bcc     0.0412    22.006     7.852     7.340 -0.3762 -0.6189  0.6895
 

 ---------------------------------------------------------------------------------

 B after Tr=     0.989577   -1.334065   -1.103677
         Rot=    0.949863    0.103690    0.057981   -0.289217 Ang=  36.44 deg.
 Atom   5 needs variable   3=   0.9741569619 but is    0.9741559219
 Input z-matrix variables are not compatible with final structure.
 1\1\GINC-MILLENNIUM-FALCON\Scan\UB3LYP\6-311G(d)\Cu1H4O2(2+,2)\JAKE\17
 -Jun-2016\0\\#opt=(modredundant,maxcycles=350) B3LYP/6-311G* scf=xqc\\
 cu2(h20)2\\2,2\Cu,-0.5075827961,0.9512544022,1.2061998268\O,-0.2868755
 517,0.598755768,2.5274947887\O,0.9576236447,0.182987047,0.2361092701\H
 ,1.7895749484,0.6388874109,0.0147687031\H,0.9515860372,-0.6879894504,-
 0.2001765017\H,-0.5269285158,-0.2558332148,2.972691084\H,0.3002979684,
 1.0565093931,3.1846392105\\Version=EM64L-G09RevD.01\State=2-A\HF=-1792
 .5470308,-1792.546314,-1792.5458232,-1792.5453594,-1792.5450521,-1792.
 544942,-1792.5450828,-1792.545547,-1792.5464048,-1792.5477143,-1792.54
 95684,-1792.552053,-1792.5552295,-1792.5591454,-1792.5638004,-1792.569
 151,-1792.5751009,-1792.5814513,-1792.5876092,-1792.5925654,-1792.5949
 58,-1792.5925891,-1792.5819181,-1792.5574538,-1792.5105788,-1792.42798
 87\S2=0.76192,0.761944,0.7615,0.76154,0.761604,0.761673,0.761758,0.761
 846,0.761851,0.761764,0.761514,0.761019,0.760201,0.759028,0.757554,0.7
 55903,0.754272,0.752935,0.752034,0.751551,0.751358,0.75132,0.751343,0.
 751391,0.751445,0.751492\S2-1=0.,0.,0.,0.,0.,0.,0.,0.,0.,0.,0.,0.,0.,0
 .,0.,0.,0.,0.,0.,0.,0.,0.,0.,0.,0.,0.\S2A=0.750019,0.750019,0.750018,0
 .750017,0.750017,0.750017,0.750016,0.750016,0.750015,0.750015,0.750014
 ,0.750013,0.750011,0.75001,0.750008,0.750006,0.750005,0.750003,0.75000
 2,0.750002,0.750001,0.750001,0.750001,0.750001,0.750001,0.750001\RMSD=
 6.171e-09,7.481e-09,7.678e-09,9.713e-09,9.653e-09,9.953e-09,9.688e-09,
 9.581e-09,2.766e-09,2.056e-09,5.541e-09,8.491e-09,2.101e-09,2.304e-09,
 4.994e-09,6.642e-09,3.352e-09,7.624e-09,7.451e-09,9.991e-10,2.505e-09,
 5.406e-09,4.671e-09,3.323e-09,9.975e-09,2.913e-09\PG=C01 [X(Cu1H4O2)]\
 \@


 YOU CANNOT THROW TO THE GROUND THE LETTERS OF
 THE GREEK ALPHABET AND PICK UP THE ILIAD.
        - RUFUS CHOATE, 1799-1859
 Job cpu time:       0 days  0 hours 59 minutes 23.9 seconds.
 File lengths (MBytes):  RWF=     10 Int=      0 D2E=      0 Chk=      3 Scr=      1
 Normal termination of Gaussian 09 at Fri Jun 17 12:32:51 2016.
